unknown system                          
           1
     8.855945    5.108903    0.000000
    -8.852556    5.103072    0.000000
     0.000000    0.000000   30.000000
   V    Mo   W    S 
   3   3   3  18
Direct configuration=     1
   0.00000000  0.00000000  0.00000000
   1.00000000  0.33333334  0.00000000
   0.00000000  0.66666669  0.00000000
   0.33333334  0.00000000  0.00000000
   0.33333334  0.33333334  0.00000000
   0.33333334  0.66666669  0.00000000
   0.66666669  0.00000000  0.00000000
   0.66666669  0.33333334  0.00000000
   0.66666669  0.66666669  0.00000000
   0.11068511  0.22244981  0.95539999
   0.22244981  0.11068511  0.04460000
   0.11068511  0.55578315  0.95539999
   0.22244981  0.44401845  0.04460000
   0.11068511  0.88911647  0.95539999
   0.22244981  0.77735180  0.04460000
   0.44401845  0.22244981  0.95539999
   0.55578315  0.11068511  0.04460000
   0.44401845  0.55578315  0.95539999
   0.55578315  0.44401845  0.04460000
   0.44401845  0.88911647  0.95539999
   0.55578315  0.77735180  0.04460000
   0.77735180  0.22244981  0.95539999
   0.88911647  0.11068511  0.04460000
   0.77735180  0.55578315  0.95539999
   0.88911647  0.44401845  0.04460000
   0.77735180  0.88911647  0.95539999
   0.88911647  0.77735180  0.04460000
unknown system                          
           1
     8.667457    5.001817    0.000000
    -8.664779    4.997217    0.000000
     0.000000    0.000000   30.000000
   V    Mo   W    S 
   3   3   3  18
Direct configuration=     2
   0.00226118  0.00109210 -0.00000202
   1.00226104  0.33442512 -0.00000207
   0.00226095  0.66775836 -0.00000204
   0.33317140 -0.00007052 -0.00017394
   0.33317129  0.33326243 -0.00017395
   0.33317118  0.66659551 -0.00017397
   0.66418289 -0.00123764  0.00024596
   0.66418254  0.33209499  0.00024597
   0.66418277  0.66542829  0.00024599
   0.10664670  0.22018212  0.95309938
   0.21765895  0.10883113  0.04803634
   0.10664666  0.55351506  0.95309948
   0.21765861  0.44216470  0.04803633
   0.10664699  0.88684838  0.95309948
   0.21765882  0.77549817  0.04803627
   0.44514689  0.22252879  0.95070526
   0.55655166  0.11161770  0.04930543
   0.44514724  0.55586268  0.95070528
   0.55655198  0.44495170  0.04930548
   0.44514710  0.88919603  0.95070532
   0.55655198  0.77828470  0.04930543
   0.78148144  0.22392566  0.95195706
   0.89230381  0.11253581  0.04682645
   0.78148147  0.55725945  0.95195706
   0.89230420  0.44586927  0.04682643
   0.78148106  0.89059239  0.95195704
   0.89230363  0.77920206  0.04682648
unknown system                          
           1
     8.482670    4.900789    0.000000
    -8.479847    4.895932    0.000000
     0.000000    0.000000   30.000000
   V    Mo   W    S 
   3   3   3  18
Direct configuration=     3
   0.00296226  0.00144176  0.00003658
   1.00296488  0.33478658  0.00003642
   0.00296534  0.66811028  0.00003642
   0.33368757  0.00018295 -0.00018517
   0.33369448  0.33353026 -0.00018529
   0.33368509  0.66685584 -0.00018513
   0.66310739 -0.00178096  0.00019739
   0.66311390  0.33155931  0.00019703
   0.66310863  0.66488359  0.00019727
   0.10657030  0.22012254  0.95308311
   0.21749660  0.10873631  0.04805036
   0.10656845  0.55345450  0.95308374
   0.21749392  0.44206822  0.04805005
   0.10656934  0.88678169  0.95308326
   0.21749162  0.77540054  0.04804968
   0.44538714  0.22265943  0.95060803
   0.55675138  0.11169933  0.04939414
   0.44538834  0.55599339  0.95060781
   0.55675189  0.44503499  0.04939441
   0.44538745  0.88932637  0.95060755
   0.55675229  0.77836650  0.04939360
   0.78131256  0.22386456  0.95211523
   0.89212565  0.11247008  0.04670121
   0.78131418  0.55720153  0.95211566
   0.89212959  0.44580449  0.04670083
   0.78130842  0.89052989  0.95211492
   0.89212578  0.77913049  0.04670078
unknown system                          
           1
     8.272986    4.792461    0.000000
    -8.258794    4.767911    0.000000
     0.000000    0.000000   30.000000
   V    Mo   W    S 
   3   3   3  18
Direct configuration=     4
   0.00546976  0.00270851  0.00019802
   1.00549015  0.33605814  0.00019559
   0.00549024  0.66938101  0.00019653
   0.33662780  0.00163535 -0.00014449
   0.33663723  0.33502016 -0.00014492
   0.33667563  0.66834929 -0.00014344
   0.65843910 -0.00416103 -0.00003594
   0.65846171  0.32920644 -0.00003791
   0.65843461  0.66253266 -0.00003642
   0.10564169  0.21956744  0.95169185
   0.21629595  0.10810012  0.04949463
   0.10564786  0.55289043  0.95168705
   0.21628907  0.44143415  0.04949665
   0.10564991  0.88624788  0.95168729
   0.21630365  0.77476769  0.04949992
   0.44533721  0.22266709  0.94858563
   0.55661386  0.11158318  0.05141836
   0.44533443  0.55600593  0.94858200
   0.55661376  0.44490990  0.05142132
   0.44533328  0.88932942  0.94858173
   0.55661004  0.77824431  0.05142266
   0.78213681  0.22435910  0.95128585
   0.89280964  0.11289369  0.04750832
   0.78212744  0.55768775  0.95128125
   0.89280015  0.44620617  0.04751381
   0.78213995  0.89102884  0.95128200
   0.89280354  0.77956084  0.04751255
unknown system                          
           1
     8.270680    4.806969    0.000000
    -8.243219    4.759432    0.000000
     0.000000    0.000000   30.000000
   V    Mo   W    S 
   3   3   3  18
Direct configuration=     5
   0.01085581  0.00540515  0.00039100
   1.01086430  0.33873598  0.00038472
   0.01086262  0.67208381  0.00038638
   0.34287905  0.00475413 -0.00004972
   0.34289073  0.33813211 -0.00004838
   0.34293842  0.67146633 -0.00005302
   0.64891596 -0.00896287 -0.00026559
   0.64892890  0.32442198 -0.00026666
   0.64890542  0.65774088 -0.00026386
   0.10563935  0.21944154  0.94968954
   0.21593128  0.10793217  0.05145906
   0.10565459  0.55277389  0.94968940
   0.21592758  0.44127236  0.05146737
   0.10564182  0.88611319  0.94968976
   0.21593003  0.77458985  0.05146752
   0.44394217  0.22196908  0.94553073
   0.55605832  0.11130647  0.05431553
   0.44394537  0.55531132  0.94552010
   0.55605739  0.44463943  0.05431766
   0.44394334  0.88863103  0.94552107
   0.55605659  0.77797131  0.05432990
   0.78255358  0.22458444  0.95052488
   0.89259248  0.11290894  0.04840536
   0.78255512  0.55792662  0.95052193
   0.89259271  0.44623229  0.04840882
   0.78256298  0.89125806  0.95052060
   0.89258854  0.77957496  0.04840578
unknown system                          
           1
     8.269348    4.805815    0.000000
    -8.242206    4.758832    0.000000
     0.000000    0.000000   30.000000
   V    Mo   W    S 
   3   3   3  18
Direct configuration=     6
   0.01389689  0.00693075  0.00035054
   1.01391114  0.34025631  0.00034711
   0.01390048  0.67359315  0.00034912
   0.34356234  0.00508692 -0.00029889
   0.34357985  0.33847270 -0.00029933
   0.34361332  0.67177761 -0.00029936
   0.64625886 -0.01028451 -0.00008318
   0.64626730  0.32310902 -0.00008450
   0.64623933  0.65642138 -0.00008277
   0.10651913  0.21988391  0.94957153
   0.21721659  0.10858020  0.05166227
   0.10653082  0.55321591  0.94957252
   0.21720879  0.44191765  0.05166538
   0.10652171  0.88655384  0.94957072
   0.21721220  0.77523636  0.05166588
   0.44283481  0.22141249  0.94506739
   0.55605001  0.11130260  0.05476990
   0.44284373  0.55475239  0.94505898
   0.55605042  0.44463901  0.05477403
   0.44284004  0.88807847  0.94506027
   0.55604947  0.77797040  0.05478122
   0.78157772  0.22408765  0.95090094
   0.89145765  0.11234922  0.04806246
   0.78157465  0.55743207  0.95089683
   0.89146343  0.44567110  0.04806276
   0.78158007  0.89075706  0.95089550
   0.89145371  0.77901079  0.04806258
unknown system                          
           1
     8.273611    4.812043    0.000000
    -8.243235    4.759456    0.000000
     0.000000    0.000000   30.000000
   V    Mo   W    S 
   3   3   3  18
Direct configuration=     7
   0.01653773  0.00825093  0.00041708
   1.01654981  0.34157278  0.00041315
   0.01653561  0.67490977  0.00041584
   0.34408582  0.00534515 -0.00034193
   0.34409290  0.33872162 -0.00034227
   0.34412597  0.67203578 -0.00034327
   0.64393462 -0.01144080 -0.00003272
   0.64394631  0.32194815 -0.00003333
   0.64392801  0.65527054 -0.00003036
   0.10692913  0.22008797  0.94942831
   0.21789272  0.10892187  0.05173186
   0.10693979  0.55342179  0.94942963
   0.21788545  0.44225667  0.05173591
   0.10692986  0.88676022  0.94942863
   0.21789050  0.77557755  0.05173500
   0.44240041  0.22118953  0.94480246
   0.55574305  0.11115372  0.05501762
   0.44240781  0.55452942  0.94479321
   0.55574284  0.44449182  0.05502310
   0.44240661  0.88785475  0.94479725
   0.55574159  0.77781973  0.05502919
   0.78105260  0.22382079  0.95129106
   0.89080405  0.11202365  0.04768769
   0.78104977  0.55716637  0.95128617
   0.89080790  0.44534807  0.04768819
   0.78105523  0.89048860  0.95128556
   0.89079837  0.77868798  0.04768688
unknown system                          
           1
     8.281374    4.828502    0.000000
    -8.240712    4.758100    0.000000
     0.000000    0.000000   30.000000
   V    Mo   W    S 
   3   3   3  18
Direct configuration=     8
   0.01851355  0.00923650  0.00041850
   1.01852867  0.34256546  0.00041448
   0.01851704  0.67589789  0.00041701
   0.34423414  0.00541525 -0.00042779
   0.34424204  0.33879425 -0.00042823
   0.34426582  0.67210614 -0.00042920
   0.64237046 -0.01222029  0.00004398
   0.64237879  0.32116588  0.00004282
   0.64236450  0.65448962  0.00004556
   0.10712939  0.22018615  0.94933357
   0.21839355  0.10917317  0.05182881
   0.10713822  0.55352606  0.94933534
   0.21839072  0.44250932  0.05183376
   0.10712671  0.88685773  0.94933574
   0.21839095  0.77582904  0.05183118
   0.44202490  0.22099916  0.94462593
   0.55555465  0.11106191  0.05519129
   0.44203230  0.55433760  0.94461724
   0.55555277  0.44439963  0.05519655
   0.44203004  0.88766331  0.94462078
   0.55555275  0.77772833  0.05520217
   0.78075307  0.22366941  0.95159678
   0.89040585  0.11182218  0.04739050
   0.78075330  0.55701632  0.95159282
   0.89040880  0.44515365  0.04739059
   0.78075911  0.89033864  0.95159123
   0.89040237  0.77849217  0.04738847
unknown system                          
           1
     8.305008    4.854291    0.000000
    -8.253917    4.765825    0.000000
     0.000000    0.000000   30.000000
   V    Mo   W    S 
   3   3   3  18
Direct configuration=     9
   0.02735791  0.01366168  0.00038039
   1.02736129  0.34697417  0.00037762
   0.02733876  0.68030913  0.00037917
   0.34447858  0.00553364 -0.00072784
   0.34447873  0.33890183 -0.00072787
   0.34449956  0.67221673 -0.00072793
   0.63555276 -0.01561882  0.00043207
   0.63555710  0.31775738  0.00043191
   0.63555049  0.65108352  0.00043290
   0.10780509  0.22053747  0.94887616
   0.22058775  0.11027136  0.05224165
   0.10780541  0.55385384  0.94887728
   0.22056684  0.44359485  0.05224326
   0.10780605  0.88719772  0.94887476
   0.22057256  0.77692485  0.05224460
   0.44050176  0.22022512  0.94393580
   0.55450086  0.11054439  0.05583914
   0.44051513  0.55356521  0.94393109
   0.55449456  0.44388219  0.05584285
   0.44051162  0.88689293  0.94393256
   0.55449331  0.77720663  0.05584806
   0.77973392  0.22315488  0.95312914
   0.88889997  0.11109227  0.04589583
   0.77972273  0.55649563  0.95312075
   0.88890946  0.44440486  0.04589706
   0.77972001  0.88981455  0.95312000
   0.88889225  0.77773644  0.04589951
unknown system                          
           1
     8.292957    4.829409    0.000000
    -8.257354    4.767769    0.000000
     0.000000    0.000000   30.000000
   V    Mo   W    S 
   3   3   3  18
Direct configuration=    10
   0.03557991  0.01777246  0.00011225
   1.03557984  0.35108019  0.00010989
   0.03555062  0.68441660  0.00011193
   0.34440540  0.00550246 -0.00106179
   0.34439521  0.33883309 -0.00106165
   0.34440888  0.67217180 -0.00106189
   0.62906981 -0.01884456  0.00096380
   0.62906522  0.31450800  0.00096274
   0.62908037  0.64784647  0.00096498
   0.10850825  0.22090013  0.94832068
   0.22324750  0.11160017  0.05280546
   0.10850008  0.55419395  0.94832129
   0.22320950  0.44491289  0.05280489
   0.10851551  0.88755631  0.94831704
   0.22322487  0.77825617  0.05280850
   0.43877164  0.21934652  0.94323802
   0.55317622  0.10989094  0.05654878
   0.43878437  0.55268780  0.94323560
   0.55317052  0.44322963  0.05655149
   0.43878037  0.88601885  0.94323605
   0.55316899  0.77655148  0.05655483
   0.77906245  0.22281755  0.95488143
   0.88762878  0.11047187  0.04419553
   0.77904007  0.55614927  0.95487046
   0.88763839  0.44377085  0.04419686
   0.77903569  0.88947089  0.95487031
   0.88761600  0.77710268  0.04420239
unknown system                          
           1
     8.306784    4.836538    0.000000
    -8.271953    4.776233    0.000000
     0.000000    0.000000   30.000000
   V    Mo   W    S 
   3   3   3  18
Direct configuration=    11
   0.03031487  0.01514710  0.00004994
   1.03033546  0.34846006  0.00004761
   0.03029084  0.68178046  0.00005015
   0.34415418  0.00538259 -0.00086145
   0.34413014  0.33871135 -0.00086183
   0.34415361  0.67203737 -0.00086239
   0.63282098 -0.01697451  0.00080883
   0.63282516  0.31638637  0.00080769
   0.63282154  0.64971747  0.00080802
   0.10840386  0.22083663  0.94848101
   0.22242971  0.11119023  0.05256403
   0.10840129  0.55414857  0.94848232
   0.22240845  0.44451338  0.05256512
   0.10840715  0.88750429  0.94848144
   0.22242318  0.77785299  0.05256632
   0.43957343  0.21975313  0.94366421
   0.55340722  0.11000161  0.05623941
   0.43958385  0.55309326  0.94366228
   0.55340589  0.44333840  0.05624187
   0.43958078  0.88642481  0.94366309
   0.55340563  0.77666910  0.05624508
   0.77968374  0.22313244  0.95431060
   0.88864114  0.11096205  0.04474559
   0.77966403  0.55646341  0.95430237
   0.88864229  0.44427122  0.04474653
   0.77967161  0.88979301  0.95430236
   0.88863442  0.77761766  0.04474970
unknown system                          
           1
     8.312617    4.836835    0.000000
    -8.280457    4.781155    0.000000
     0.000000    0.000000   30.000000
   V    Mo   W    S 
   3   3   3  18
Direct configuration=    12
   0.03450335  0.01724203 -0.00027192
   1.03446443  0.35050673 -0.00027302
   0.03442647  0.68386688 -0.00026858
   0.34379900  0.00521963 -0.00094363
   0.34377250  0.33851448 -0.00094213
   0.34383213  0.67186865 -0.00094202
   0.62916225 -0.01879684  0.00126681
   0.62917485  0.31455603  0.00126596
   0.62915895  0.64788876  0.00126607
   0.10891974  0.22107820  0.94802726
   0.22375672  0.11185227  0.05271881
   0.10892015  0.55441043  0.94802832
   0.22377053  0.44519346  0.05272486
   0.10891710  0.88777552  0.94803262
   0.22377529  0.77852984  0.05272220
   0.43885624  0.21939063  0.94344193
   0.55237782  0.10948903  0.05665372
   0.43886890  0.55272998  0.94344346
   0.55237545  0.44282870  0.05665296
   0.43886439  0.88605773  0.94344453
   0.55237069  0.77615571  0.05665533
   0.77965803  0.22312139  0.95546575
   0.88839993  0.11082919  0.04363446
   0.77963620  0.55644779  0.95545690
   0.88839117  0.44414848  0.04363843
   0.77966296  0.88979111  0.95546272
   0.88839921  0.77751867  0.04363809
unknown system                          
           1
     8.311271    4.834653    0.000000
    -8.280324    4.781074    0.000000
     0.000000    0.000000   30.000000
   V    Mo   W    S 
   3   3   3  18
Direct configuration=    13
   0.03497218  0.01748589 -0.00053459
   1.03499662  0.35078102 -0.00053166
   0.03493905  0.68410843 -0.00052623
   0.34342358  0.00503177 -0.00097428
   0.34337780  0.33832802 -0.00097306
   0.34341328  0.67164545 -0.00097590
   0.62877958 -0.01898664  0.00141701
   0.62877830  0.31435376  0.00141494
   0.62878649  0.64770454  0.00141659
   0.10912451  0.22118828  0.94779977
   0.22372261  0.11183449  0.05270298
   0.10912164  0.55450785  0.94780882
   0.22370827  0.44516363  0.05269841
   0.10912278  0.88787303  0.94780486
   0.22372236  0.77850122  0.05269613
   0.43896150  0.21944286  0.94355015
   0.55195470  0.10927929  0.05686474
   0.43895741  0.55277055  0.94355067
   0.55195533  0.44261565  0.05686343
   0.43895663  0.88610523  0.94355390
   0.55195369  0.77594857  0.05686814
   0.77973648  0.22316167  0.95582423
   0.88877449  0.11101969  0.04334555
   0.77970425  0.55648368  0.95581565
   0.88876783  0.44433117  0.04334812
   0.77973559  0.88982982  0.95582216
   0.88876751  0.77770552  0.04334936
unknown system                          
           1
     8.311834    4.834158    0.000000
    -8.281593    4.781801    0.000000
     0.000000    0.000000   30.000000
   V    Mo   W    S 
   3   3   3  18
Direct configuration=    14
   0.03506271  0.01752681 -0.00063001
   1.03507945  0.35082813 -0.00063007
   0.03504318  0.68416048 -0.00062376
   0.34332267  0.00498254 -0.00092529
   0.34328793  0.33828285 -0.00092330
   0.34331254  0.67159356 -0.00092604
   0.62870733 -0.01901963  0.00154276
   0.62870797  0.31431706  0.00154071
   0.62871052  0.64766446  0.00154188
   0.10922323  0.22124002  0.94768580
   0.22353323  0.11173924  0.05264506
   0.10921792  0.55456066  0.94769626
   0.22352713  0.44507300  0.05264386
   0.10921885  0.88791385  0.94769411
   0.22353031  0.77840521  0.05263697
   0.43909307  0.21951036  0.94359985
   0.55179371  0.10919926  0.05688899
   0.43909064  0.55283555  0.94359980
   0.55179481  0.44253525  0.05688679
   0.43908551  0.88616899  0.94360367
   0.55179155  0.77586686  0.05689149
   0.77972712  0.22315723  0.95592113
   0.88897925  0.11112155  0.04326818
   0.77969945  0.55648178  0.95591379
   0.88897423  0.44443779  0.04326886
   0.77972516  0.88982603  0.95591860
   0.88897499  0.77780557  0.04326980
unknown system                          
           1
     8.310321    4.832597    0.000000
    -8.280673    4.781269    0.000000
     0.000000    0.000000   30.000000
   V    Mo   W    S 
   3   3   3  18
Direct configuration=    15
   0.03504798  0.01751578 -0.00073873
   1.03505337  0.35081855 -0.00074013
   0.03502704  0.68415373 -0.00073500
   0.34325736  0.00495180 -0.00091509
   0.34323145  0.33825396 -0.00091296
   0.34325201  0.67156191 -0.00091453
   0.62876404 -0.01898950  0.00160461
   0.62876899  0.31434761  0.00160266
   0.62876735  0.64769082  0.00160333
   0.10932341  0.22128725  0.94758496
   0.22325557  0.11160074  0.05261732
   0.10931738  0.55461630  0.94759338
   0.22326068  0.44493840  0.05262061
   0.10931631  0.88795984  0.94759423
   0.22326021  0.77827053  0.05261330
   0.43928042  0.21960521  0.94366516
   0.55165235  0.10912904  0.05695640
   0.43928031  0.55292957  0.94366421
   0.55165444  0.44246470  0.05695422
   0.43927235  0.88626183  0.94366867
   0.55164893  0.77579500  0.05695786
   0.77966452  0.22312556  0.95597017
   0.88918538  0.11122217  0.04325075
   0.77964372  0.55645408  0.95596454
   0.88918029  0.44454507  0.04325084
   0.77966570  0.88979751  0.95596816
   0.88918289  0.77790701  0.04325098
unknown system                          
           1
     8.311762    4.832880    0.000000
    -8.282589    4.782373    0.000000
     0.000000    0.000000   30.000000
   V    Mo   W    S 
   3   3   3  18
Direct configuration=    16
   0.03507120  0.01749504 -0.00087093
   1.03501838  0.35081536 -0.00086928
   0.03509460  0.68420717 -0.00086537
   0.34315874  0.00489178 -0.00088665
   0.34320659  0.33822752 -0.00088351
   0.34319746  0.67155901 -0.00088456
   0.62878150 -0.01898269  0.00171371
   0.62878459  0.31435840  0.00171275
   0.62877954  0.64769543  0.00171306
   0.10947426  0.22135067  0.94746455
   0.22293723  0.11144331  0.05257586
   0.10946459  0.55471423  0.94747191
   0.22295598  0.44478418  0.05258196
   0.10945774  0.88801897  0.94747699
   0.22291636  0.77809799  0.05256649
   0.43948922  0.21971407  0.94372645
   0.55148819  0.10904925  0.05702395
   0.43949627  0.55303619  0.94372717
   0.55148479  0.44238205  0.05702253
   0.43947911  0.88636201  0.94373050
   0.55148040  0.77570568  0.05702533
   0.77957747  0.22308152  0.95602294
   0.88940590  0.11132271  0.04322140
   0.77959064  0.55642720  0.95602388
   0.88941169  0.44468105  0.04321873
   0.77959424  0.88976347  0.95602412
   0.88941778  0.77801289  0.04321593
unknown system                          
           1
     8.310239    4.831840    0.000000
    -8.281204    4.781573    0.000000
     0.000000    0.000000   30.000000
   V    Mo   W    S 
   3   3   3  18
Direct configuration=    17
   0.03509702  0.01751917 -0.00096472
   1.03508003  0.35084384 -0.00096075
   0.03509233  0.68419821 -0.00096445
   0.34309485  0.00486411 -0.00087715
   0.34311107  0.33818424 -0.00087776
   0.34311031  0.67150637 -0.00087829
   0.62879520 -0.01897753  0.00176996
   0.62880261  0.31437215  0.00176782
   0.62880466  0.64770457  0.00176843
   0.10959045  0.22141556  0.94738465
   0.22272576  0.11133847  0.05255633
   0.10958357  0.55476602  0.94738762
   0.22272533  0.44466733  0.05255543
   0.10958181  0.88808189  0.94738580
   0.22272214  0.77800130  0.05255435
   0.43964144  0.21978519  0.94377262
   0.55135221  0.10898001  0.05709683
   0.43964291  0.55311136  0.94377405
   0.55135728  0.44231685  0.05709816
   0.43963397  0.88644260  0.94377527
   0.55135037  0.77564303  0.05710009
   0.77953835  0.22306255  0.95606098
   0.88955459  0.11139801  0.04319788
   0.77955291  0.55640843  0.95606274
   0.88955806  0.44475371  0.04319651
   0.77955328  0.88974286  0.95606216
   0.88956193  0.77808414  0.04319533
unknown system                          
           1
     8.307602    4.829256    0.000000
    -8.279484    4.780577    0.000000
     0.000000    0.000000   30.000000
   V    Mo   W    S 
   3   3   3  18
Direct configuration=    18
   0.03510277  0.01753080 -0.00101104
   1.03510402  0.35085350 -0.00100829
   0.03508982  0.68419083 -0.00100999
   0.34310431  0.00487014 -0.00086433
   0.34309948  0.33818281 -0.00086554
   0.34310601  0.67149842 -0.00086546
   0.62878263 -0.01898286  0.00181015
   0.62879142  0.31436471  0.00180852
   0.62879371  0.64769995  0.00180939
   0.10965812  0.22145660  0.94734193
   0.22261571  0.11128340  0.05253993
   0.10965335  0.55478869  0.94734321
   0.22260990  0.44460957  0.05253754
   0.10965501  0.88812353  0.94733913
   0.22261763  0.77794895  0.05253892
   0.43972239  0.21982354  0.94379721
   0.55128117  0.10894470  0.05712023
   0.43972176  0.55315166  0.94379811
   0.55128896  0.44228201  0.05712161
   0.43971648  0.88648517  0.94380053
   0.55128049  0.77560840  0.05712313
   0.77950676  0.22304701  0.95608467
   0.88962759  0.11143893  0.04318089
   0.77951129  0.55638794  0.95608437
   0.88962876  0.44478208  0.04318025
   0.77951448  0.88972317  0.95608467
   0.88963044  0.77812079  0.04318017
unknown system                          
           1
     8.309900    4.830759    0.000000
    -8.281629    4.781816    0.000000
     0.000000    0.000000   30.000000
   V    Mo   W    S 
   3   3   3  18
Direct configuration=    19
   0.03517333  0.01756039 -0.00118067
   1.03516006  0.35088775 -0.00118210
   0.03518461  0.68423845 -0.00117686
   0.34294533  0.00478524 -0.00083633
   0.34295784  0.33810885 -0.00083470
   0.34295270  0.67143031 -0.00083514
   0.62881652 -0.01896193  0.00194303
   0.62881871  0.31437419  0.00194206
   0.62881548  0.64771063  0.00194308
   0.10988971  0.22157398  0.94718658
   0.22220171  0.11107754  0.05249558
   0.10988392  0.55490101  0.94718891
   0.22220394  0.44440460  0.05249878
   0.10988822  0.88824223  0.94718864
   0.22219453  0.77773765  0.05249065
   0.43998044  0.21995517  0.94386247
   0.55103681  0.10882420  0.05724732
   0.43998218  0.55327953  0.94386120
   0.55103760  0.44215632  0.05724643
   0.43997262  0.88661282  0.94386589
   0.55103248  0.77548218  0.05724860
   0.77944546  0.22301631  0.95615114
   0.88991192  0.11158448  0.04312947
   0.77944971  0.55635717  0.95614940
   0.88991436  0.44492479  0.04312847
   0.77944843  0.88969056  0.95614959
   0.88991584  0.77826002  0.04312843
unknown system                          
           1
     8.311379    4.831016    0.000000
    -8.283626    4.782968    0.000000
     0.000000    0.000000   30.000000
   V    Mo   W    S 
   3   3   3  18
Direct configuration=    20
   0.03516952  0.01756223 -0.00117978
   1.03516745  0.35088885 -0.00117857
   0.03516626  0.68422782 -0.00117868
   0.34297745  0.00480535 -0.00083600
   0.34297718  0.33812138 -0.00083579
   0.34297876  0.67143635 -0.00083601
   0.62879313 -0.01897528  0.00193993
   0.62879918  0.31436679  0.00193838
   0.62879805  0.64770124  0.00193870
   0.10989237  0.22157571  0.94717993
   0.22220673  0.11107886  0.05250138
   0.10988881  0.55490377  0.94718164
   0.22220276  0.44440561  0.05250146
   0.10989197  0.88824355  0.94717979
   0.22220886  0.77774436  0.05249936
   0.44000014  0.21996277  0.94386930
   0.55103452  0.10882196  0.05724171
   0.44000057  0.55329114  0.94386959
   0.55103937  0.44215669  0.05724216
   0.43999264  0.88662278  0.94387276
   0.55103183  0.77548344  0.05724344
   0.77943308  0.22301061  0.95615235
   0.88989553  0.11157582  0.04313029
   0.77943686  0.55635080  0.95615138
   0.88989688  0.44491557  0.04312974
   0.77943670  0.88968412  0.95615153
   0.88989786  0.77825218  0.04312990
unknown system                          
           1
     8.310222    4.830412    0.000000
    -8.282412    4.782268    0.000000
     0.000000    0.000000   30.000000
   V    Mo   W    S 
   3   3   3  18
Direct configuration=    21
   0.03520375  0.01757002 -0.00124908
   1.03520164  0.35091581 -0.00124845
   0.03524077  0.68426446 -0.00124767
   0.34292038  0.00476554 -0.00082269
   0.34294367  0.33810523 -0.00082226
   0.34292103  0.67141827 -0.00082236
   0.62878441 -0.01897866  0.00199720
   0.62878862  0.31436099  0.00199669
   0.62878887  0.64769607  0.00199789
   0.11001413  0.22163731  0.94712877
   0.22206265  0.11100742  0.05247123
   0.11000942  0.55496856  0.94713115
   0.22206115  0.44433329  0.05247189
   0.11001202  0.88829887  0.94712946
   0.22205425  0.77766758  0.05246550
   0.44012225  0.22002546  0.94391619
   0.55093197  0.10877319  0.05726946
   0.44012171  0.55334999  0.94391556
   0.55093474  0.44210473  0.05726942
   0.44011341  0.88668321  0.94391942
   0.55092966  0.77542917  0.05727070
   0.77936303  0.22297539  0.95619139
   0.88998346  0.11162140  0.04309737
   0.77937177  0.55631822  0.95619158
   0.88998520  0.44496227  0.04309566
   0.77936469  0.88964830  0.95619033
   0.88998584  0.77829238  0.04309556
unknown system                          
           1
     8.309185    4.829189    0.000000
    -8.281915    4.781980    0.000000
     0.000000    0.000000   30.000000
   V    Mo   W    S 
   3   3   3  18
Direct configuration=    22
   0.03520873  0.01757936 -0.00127542
   1.03520591  0.35091087 -0.00127436
   0.03521466  0.68425169 -0.00127572
   0.34293308  0.00477983 -0.00081896
   0.34293919  0.33810301 -0.00081899
   0.34293440  0.67141694 -0.00081874
   0.62877717 -0.01898242  0.00201254
   0.62878313  0.31435905  0.00201097
   0.62878207  0.64769193  0.00201132
   0.11005152  0.22165551  0.94710034
   0.22199181  0.11097149  0.05246710
   0.11004992  0.55498487  0.94710061
   0.22198983  0.44429829  0.05246770
   0.11005234  0.88832368  0.94709936
   0.22199673  0.77763856  0.05246572
   0.44016836  0.22004682  0.94392788
   0.55088679  0.10874866  0.05729473
   0.44016864  0.55337548  0.94392787
   0.55089120  0.44208250  0.05729518
   0.44016121  0.88670678  0.94393086
   0.55088420  0.77540876  0.05729603
   0.77934891  0.22296886  0.95620350
   0.89002973  0.11164443  0.04308860
   0.77935303  0.55630876  0.95620308
   0.89003013  0.44498154  0.04308806
   0.77935084  0.88964094  0.95620263
   0.89003093  0.77831825  0.04308803
unknown system                          
           1
     8.308528    4.828756    0.000000
    -8.281305    4.781627    0.000000
     0.000000    0.000000   30.000000
   V    Mo   W    S 
   3   3   3  18
Direct configuration=    23
   0.03526757  0.01761165 -0.00135256
   1.03526348  0.35093655 -0.00135151
   0.03526198  0.68427551 -0.00135192
   0.34282998  0.00473099 -0.00080454
   0.34282774  0.33804668 -0.00080497
   0.34283128  0.67136328 -0.00080433
   0.62879936 -0.01897091  0.00207833
   0.62880588  0.31436947  0.00207745
   0.62880561  0.64770406  0.00207794
   0.11015738  0.22170847  0.94703758
   0.22181771  0.11088350  0.05244817
   0.11015678  0.55503607  0.94703790
   0.22181624  0.44421235  0.05244895
   0.11015903  0.88837981  0.94703688
   0.22182210  0.77755106  0.05244575
   0.44027657  0.22010063  0.94395175
   0.55078483  0.10869781  0.05734794
   0.44027628  0.55342979  0.94395152
   0.55079041  0.44203201  0.05734822
   0.44026937  0.88676065  0.94395570
   0.55078247  0.77535760  0.05734902
   0.77932404  0.22295688  0.95623326
   0.89014373  0.11170193  0.04306003
   0.77932762  0.55629575  0.95623206
   0.89014531  0.44503932  0.04305949
   0.77932575  0.88962818  0.95623244
   0.89014597  0.77837535  0.04305935
unknown system                          
           1
     8.308528    4.828756    0.000000
    -8.281305    4.781627    0.000000
     0.000000    0.000000   30.000000
   V    Mo   W    S 
   3   3   3  18
Direct configuration=    24
   0.03526365  0.01761096 -0.00136743
   1.03525990  0.35093363 -0.00136638
   0.03525406  0.68427138 -0.00136717
   0.34285435  0.00474478 -0.00080258
   0.34285003  0.33805807 -0.00080291
   0.34285564  0.67137361 -0.00080238
   0.62878065 -0.01898023  0.00208326
   0.62878686  0.31436013  0.00208189
   0.62878611  0.64769409  0.00208217
   0.11018500  0.22172235  0.94701963
   0.22177832  0.11086384  0.05244502
   0.11018499  0.55504969  0.94701952
   0.22177698  0.44419260  0.05244572
   0.11018723  0.88839446  0.94701850
   0.22178540  0.77753270  0.05244357
   0.44031277  0.22011845  0.94396582
   0.55075318  0.10868148  0.05735963
   0.44031271  0.55344830  0.94396575
   0.55075869  0.44201603  0.05735990
   0.44030564  0.88677878  0.94396958