<?xml version="1.0" encoding="ISO-8859-1"?>
<modeling>
 <generator>
  <i name="program" type="string">vasp </i>
  <i name="version" type="string">5.4.1  </i>
  <i name="subversion" type="string">05Feb16 (build Jul 05 2020 17:13:04) complex                          parallel </i>
  <i name="platform" type="string">IFC91_ompi </i>
  <i name="date" type="string">2024 04 17 </i>
  <i name="time" type="string">01:30:06 </i>
 </generator>
 <incar>
  <i type="int" name="ISTART">     0</i>
  <i type="string" name="PREC">normal</i>
  <i type="string" name="ALGO"> Normal</i>
  <i type="int" name="ISPIN">     1</i>
  <i type="int" name="ICHARG">     2</i>
  <i type="int" name="IBRION">     1</i>
  <i type="int" name="NSW">   100</i>
  <i type="int" name="ISIF">     3</i>
  <i type="int" name="ISYM">     0</i>
  <i name="SYMPREC">      0.00000001</i>
  <i name="POTIM">      0.50000000</i>
  <i type="logical" name="LPLANE"> F  </i>
  <i type="int" name="ISMEAR">     0</i>
  <i type="logical" name="LWAVE"> F  </i>
  <i type="logical" name="LCHARG"> F  </i>
  <v type="int" name="KPOINT_BSE">    -1     0     0     0</v>
 </incar>
 <kpoints>
  <generation param="Gamma">
   <v type="int" name="divisions">       8        8        1 </v>
   <v name="usershift">      0.00000000       0.00000000       0.00000000 </v>
   <v name="genvec1">      0.12500000       0.00000000       0.00000000 </v>
   <v name="genvec2">     -0.00000000       0.12500000       0.00000000 </v>
   <v name="genvec3">      0.00000000       0.00000000       1.00000000 </v>
   <v name="shift">      0.00000000       0.00000000       0.00000000 </v>
  </generation>
  <varray name="kpointlist" >
   <v>       0.00000000       0.00000000       0.00000000 </v>
   <v>       0.12500000       0.00000000       0.00000000 </v>
   <v>       0.25000000       0.00000000       0.00000000 </v>
   <v>       0.37500000       0.00000000       0.00000000 </v>
   <v>       0.50000000       0.00000000       0.00000000 </v>
   <v>       0.00000000       0.12500000       0.00000000 </v>
   <v>       0.12500000       0.12500000       0.00000000 </v>
   <v>       0.25000000       0.12500000       0.00000000 </v>
   <v>       0.37500000       0.12500000       0.00000000 </v>
   <v>       0.50000000       0.12500000       0.00000000 </v>
   <v>      -0.37500000       0.12500000       0.00000000 </v>
   <v>      -0.25000000       0.12500000       0.00000000 </v>
   <v>      -0.12500000       0.12500000       0.00000000 </v>
   <v>       0.00000000       0.25000000       0.00000000 </v>
   <v>       0.12500000       0.25000000       0.00000000 </v>
   <v>       0.25000000       0.25000000       0.00000000 </v>
   <v>       0.37500000       0.25000000       0.00000000 </v>
   <v>       0.50000000       0.25000000       0.00000000 </v>
   <v>      -0.37500000       0.25000000       0.00000000 </v>
   <v>      -0.25000000       0.25000000       0.00000000 </v>
   <v>      -0.12500000       0.25000000       0.00000000 </v>
   <v>      -0.00000000       0.37500000       0.00000000 </v>
   <v>       0.12500000       0.37500000       0.00000000 </v>
   <v>       0.25000000       0.37500000       0.00000000 </v>
   <v>       0.37500000       0.37500000       0.00000000 </v>
   <v>       0.50000000       0.37500000       0.00000000 </v>
   <v>      -0.37500000       0.37500000       0.00000000 </v>
   <v>      -0.25000000       0.37500000       0.00000000 </v>
   <v>      -0.12500000       0.37500000       0.00000000 </v>
   <v>       0.00000000       0.50000000       0.00000000 </v>
   <v>       0.12500000       0.50000000       0.00000000 </v>
   <v>       0.25000000       0.50000000       0.00000000 </v>
   <v>       0.37500000       0.50000000       0.00000000 </v>
   <v>       0.50000000       0.50000000       0.00000000 </v>
  </varray>
  <varray name="weights" >
   <v>       0.01562500 </v>
   <v>       0.03125000 </v>
   <v>       0.03125000 </v>
   <v>       0.03125000 </v>
   <v>       0.01562500 </v>
   <v>       0.03125000 </v>
   <v>       0.03125000 </v>
   <v>       0.03125000 </v>
   <v>       0.03125000 </v>
   <v>       0.03125000 </v>
   <v>       0.03125000 </v>
   <v>       0.03125000 </v>
   <v>       0.03125000 </v>
   <v>       0.03125000 </v>
   <v>       0.03125000 </v>
   <v>       0.03125000 </v>
   <v>       0.03125000 </v>
   <v>       0.03125000 </v>
   <v>       0.03125000 </v>
   <v>       0.03125000 </v>
   <v>       0.03125000 </v>
   <v>       0.03125000 </v>
   <v>       0.03125000 </v>
   <v>       0.03125000 </v>
   <v>       0.03125000 </v>
   <v>       0.03125000 </v>
   <v>       0.03125000 </v>
   <v>       0.03125000 </v>
   <v>       0.03125000 </v>
   <v>       0.01562500 </v>
   <v>       0.03125000 </v>
   <v>       0.03125000 </v>
   <v>       0.03125000 </v>
   <v>       0.01562500 </v>
  </varray>
 </kpoints>
 <parameters>
  <separator name="general" >
   <i type="string" name="SYSTEM">unknown system</i>
   <i type="logical" name="LCOMPAT"> F  </i>
  </separator>
  <separator name="electronic" >
   <i type="string" name="PREC">normal</i>
   <i name="ENMAX">    280.00000000</i>
   <i name="ENAUG">    373.43800000</i>
   <i name="EDIFF">      0.00010000</i>
   <i type="int" name="IALGO">    38</i>
   <i type="int" name="IWAVPR">    11</i>
   <i type="int" name="NBANDS">    96</i>
   <i name="NELECT">    159.00000000</i>
   <i type="int" name="TURBO">     0</i>
   <i type="int" name="IRESTART">     0</i>
   <i type="int" name="NREBOOT">     0</i>
   <i type="int" name="NMIN">     0</i>
   <i name="EREF">      0.00000000</i>
   <separator name="electronic smearing" >
    <i type="int" name="ISMEAR">     0</i>
    <i name="SIGMA">      0.20000000</i>
    <i name="KSPACING">      0.50000000</i>
    <i type="logical" name="KGAMMA"> T  </i>
   </separator>
   <separator name="electronic projectors" >
    <i type="logical" name="LREAL"> F  </i>
    <v name="ROPT">      0.00000000      0.00000000      0.00000000      0.00000000</v>
    <i type="int" name="LMAXPAW">  -100</i>
    <i type="int" name="LMAXMIX">     2</i>
    <i type="logical" name="NLSPLINE"> F  </i>
   </separator>
   <separator name="electronic startup" >
    <i type="int" name="ISTART">     0</i>
    <i type="int" name="ICHARG">     2</i>
    <i type="int" name="INIWAV">     1</i>
   </separator>
   <separator name="electronic spin" >
    <i type="int" name="ISPIN">     1</i>
    <i type="logical" name="LNONCOLLINEAR"> F  </i>
    <v name="MAGMOM">      1.00000000      1.00000000      1.00000000      1.00000000      1.00000000      1.00000000      1.00000000      1.00000000      1.00000000      1.00000000      1.00000000      1.00000000      1.00000000      1.00000000      1.00000000      1.00000000      1.00000000      1.00000000      1.00000000      1.00000000
      1.00000000      1.00000000      1.00000000      1.00000000      1.00000000      1.00000000      1.00000000</v>
    <i name="NUPDOWN">     -1.00000000</i>
    <i type="logical" name="LSORBIT"> F  </i>
    <v name="SAXIS">      0.00000000      0.00000000      1.00000000</v>
    <i type="logical" name="LSPIRAL"> F  </i>
    <v name="QSPIRAL">      0.00000000      0.00000000      0.00000000</v>
    <i type="logical" name="LZEROZ"> F  </i>
   </separator>
   <separator name="electronic exchange-correlation" >
    <i type="logical" name="LASPH"> F  </i>
    <i type="logical" name="LMETAGGA"> F  </i>
   </separator>
   <separator name="electronic convergence" >
    <i type="int" name="NELM">    60</i>
    <i type="int" name="NELMDL">    -5</i>
    <i type="int" name="NELMIN">     2</i>
    <i name="ENINI">    280.00000000</i>
    <separator name="electronic convergence detail" >
     <i type="logical" name="LDIAG"> T  </i>
     <i type="logical" name="LSUBROT"> F  </i>
     <i name="WEIMIN">      0.00100000</i>
     <i name="EBREAK">      0.00000026</i>
     <i name="DEPER">      0.30000000</i>
     <i type="int" name="NRMM">     4</i>
     <i name="TIME">      0.40000000</i>
    </separator>
   </separator>
   <separator name="electronic mixer" >
    <i name="AMIX">      0.40000000</i>
    <i name="BMIX">      1.00000000</i>
    <i name="AMIN">      0.10000000</i>
    <i name="AMIX_MAG">      1.60000000</i>
    <i name="BMIX_MAG">      1.00000000</i>
    <separator name="electronic mixer details" >
     <i type="int" name="IMIX">     4</i>
     <i type="logical" name="MIXFIRST"> F  </i>
     <i type="int" name="MAXMIX">   -45</i>
     <i name="WC">    100.00000000</i>
     <i type="int" name="INIMIX">     1</i>
     <i type="int" name="MIXPRE">     1</i>
     <i type="int" name="MREMOVE">     5</i>
    </separator>
   </separator>
   <separator name="electronic dipolcorrection" >
    <i type="logical" name="LDIPOL"> F  </i>
    <i type="logical" name="LMONO"> F  </i>
    <i type="int" name="IDIPOL">     0</i>
    <i name="EPSILON">      1.00000000</i>
    <v name="DIPOL">   -100.00000000   -100.00000000   -100.00000000</v>
    <i name="EFIELD">      0.00000000</i>
   </separator>
  </separator>
  <separator name="grids" >
   <i type="int" name="NGX">    42</i>
   <i type="int" name="NGY">    42</i>
   <i type="int" name="NGZ">   126</i>
   <i type="int" name="NGXF">    84</i>
   <i type="int" name="NGYF">    84</i>
   <i type="int" name="NGZF">   252</i>
   <i type="logical" name="ADDGRID"> F  </i>
  </separator>
  <separator name="ionic" >
   <i type="int" name="NSW">   100</i>
   <i type="int" name="IBRION">     1</i>
   <i type="int" name="ISIF">     3</i>
   <i name="PSTRESS">      0.00000000</i>
   <i name="EDIFFG">      0.00100000</i>
   <i type="int" name="NFREE">     0</i>
   <i name="POTIM">      0.50000000</i>
   <i name="SMASS">     -3.00000000</i>
   <i name="SCALEE">      1.00000000</i>
  </separator>
  <separator name="ionic md" >
   <i name="TEBEG">      0.00010000</i>
   <i name="TEEND">      0.00010000</i>
   <i type="int" name="NBLOCK">     1</i>
   <i type="int" name="KBLOCK">   100</i>
   <i type="int" name="NPACO">   256</i>
   <i name="APACO">     16.00000000</i>
  </separator>
  <separator name="symmetry" >
   <i type="int" name="ISYM">     0</i>
   <i name="SYMPREC">      0.00000001</i>
  </separator>
  <separator name="dos" >
   <i type="logical" name="LORBIT"> F  </i>
   <v name="RWIGS">     -1.00000000     -1.00000000     -1.00000000     -1.00000000</v>
   <i type="int" name="NEDOS">   301</i>
   <i name="EMIN">     10.00000000</i>
   <i name="EMAX">    -10.00000000</i>
   <i name="EFERMI">      0.00000000</i>
  </separator>
  <separator name="writing" >
   <i type="int" name="NWRITE">     2</i>
   <i type="logical" name="LWAVE"> F  </i>
   <i type="logical" name="LCHARG"> F  </i>
   <i type="logical" name="LPARD"> F  </i>
   <i type="logical" name="LVTOT"> F  </i>
   <i type="logical" name="LVHAR"> F  </i>
   <i type="logical" name="LELF"> F  </i>
   <i type="logical" name="LOPTICS"> F  </i>
   <v name="STM">      0.00000000      0.00000000      0.00000000      0.00000000      0.00000000      0.00000000      0.00000000</v>
  </separator>
  <separator name="performance" >
   <i type="int" name="NPAR">    32</i>
   <i type="int" name="NSIM">     4</i>
   <i type="int" name="NBLK">    -1</i>
   <i type="logical" name="LPLANE"> F  </i>
   <i type="logical" name="LSCALAPACK"> T  </i>
   <i type="logical" name="LSCAAWARE"> F  </i>
   <i type="logical" name="LSCALU"> F  </i>
   <i type="logical" name="LASYNC"> F  </i>
   <i type="logical" name="LORBITALREAL"> F  </i>
  </separator>
  <separator name="miscellaneous" >
   <i type="int" name="IDIOT">     3</i>
   <i type="logical" name="LMUSIC"> F  </i>
   <v name="POMASS">     50.94100000     95.94000000    183.85000000     32.06600000</v>
   <v name="DARWINR">      0.00000000      0.00000000      0.00000000      0.00000000</v>
   <v name="DARWINV">      1.00000000      1.00000000      1.00000000      1.00000000</v>
   <i type="logical" name="LCORR"> T  </i>
  </separator>
  <i type="logical" name="GGA_COMPAT"> T  </i>
  <i type="logical" name="LBERRY"> F  </i>
  <i type="int" name="ICORELEVEL">     0</i>
  <i type="logical" name="LDAU"> F  </i>
  <i type="int" name="I_CONSTRAINED_M">     0</i>
  <separator name="electronic exchange-correlation" >
   <i type="string" name="GGA">--</i>
   <i type="int" name="VOSKOWN">     0</i>
   <i type="logical" name="LHFCALC"> F  </i>
   <i type="string" name="PRECFOCK"></i>
   <i type="logical" name="LSYMGRAD"> F  </i>
   <i type="logical" name="LHFONE"> F  </i>
   <i type="logical" name="LRHFCALC"> F  </i>
   <i type="logical" name="LTHOMAS"> F  </i>
   <i type="logical" name="LMODELHF"> F  </i>
   <i name="ENCUT4O">     -1.00000000</i>
   <i type="int" name="EXXOEP">     0</i>
   <i type="int" name="FOURORBIT">     0</i>
   <i name="AEXX">      0.00000000</i>
   <i name="HFALPHA">      0.00000000</i>
   <i name="MCALPHA">      0.00000000</i>
   <i name="ALDAX">      1.00000000</i>
   <i name="AGGAX">      1.00000000</i>
   <i name="ALDAC">      1.00000000</i>
   <i name="AGGAC">      1.00000000</i>
   <i type="int" name="NKREDX">     1</i>
   <i type="int" name="NKREDY">     1</i>
   <i type="int" name="NKREDZ">     1</i>
   <i type="logical" name="SHIFTRED"> F  </i>
   <i type="logical" name="ODDONLY"> F  </i>
   <i type="logical" name="EVENONLY"> F  </i>
   <i type="int" name="LMAXFOCK">     0</i>
   <i type="int" name="NMAXFOCKAE">     0</i>
   <i type="logical" name="LFOCKAEDFT"> F  </i>
   <i name="HFSCREEN">      0.00000000</i>
   <i name="HFSCREENC">      0.00000000</i>
   <i type="int" name="NBANDSGWLOW">     0</i>
  </separator>
  <separator name="vdW DFT" >
   <i type="logical" name="LUSE_VDW"> F  </i>
   <i name="Zab_VDW">     -0.84910000</i>
   <i name="PARAM1">      0.12340000</i>
   <i name="PARAM2">      1.00000000</i>
   <i name="PARAM3">      0.00000000</i>
  </separator>
  <separator name="model GW" >
   <i type="int" name="MODEL_GW">     0</i>
   <i name="MODEL_EPS0">     58.26239943</i>
   <i name="MODEL_ALPHA">      1.00000000</i>
  </separator>
  <separator name="linear response parameters" >
   <i type="logical" name="LEPSILON"> F  </i>
   <i type="logical" name="LRPA"> F  </i>
   <i type="logical" name="LNABLA"> F  </i>
   <i type="logical" name="LVEL"> F  </i>
   <i type="int" name="KINTER">     0</i>
   <i name="CSHIFT">      0.10000000</i>
   <i name="OMEGAMAX">     -1.00000000</i>
   <i name="DEG_THRESHOLD">      0.00200000</i>
  </separator>
  <separator name="orbital magnetization" >
   <i type="logical" name="NUCIND"> F  </i>
   <v name="MAGPOS">      0.00000000      0.00000000      0.00000000</v>
   <i type="logical" name="LNICSALL"> T  </i>
   <i type="logical" name="ORBITALMAG"> F  </i>
   <i type="logical" name="LMAGBLOCH"> F  </i>
   <i type="logical" name="LCHIMAG"> F  </i>
   <i type="logical" name="LGAUGE"> T  </i>
   <i type="int" name="MAGATOM">     0</i>
   <v name="MAGDIPOL">      0.00000000      0.00000000      0.00000000</v>
   <v name="AVECCONST">      0.00000000      0.00000000      0.00000000</v>
  </separator>
  <separator name="response functions" >
   <i type="logical" name="LADDER"> F  </i>
   <i type="logical" name="LFXC"> F  </i>
   <i type="logical" name="LHARTREE"> T  </i>
   <i type="int" name="IBSE">     0</i>
   <v type="int" name="KPOINT">    -1     0     0     0</v>
   <i type="logical" name="LTCTE"> F  </i>
   <i type="logical" name="LTETE"> F  </i>
   <i type="logical" name="LTRIPLET"> F  </i>
   <i type="logical" name="LFXCEPS"> F  </i>
   <i type="logical" name="LFXHEG"> F  </i>
   <i type="int" name="NATURALO">     0</i>
   <i type="logical" name="L2ORDER"> F  </i>
   <i type="logical" name="LUSEW"> F  </i>
   <i name="ENCUTGW">     -2.00000000</i>
   <i name="ENCUTGWSOFT">     -2.00000000</i>
   <i name="ENCUTLF">     -1.00000000</i>
   <i type="int" name="LMAXMP2">    -1</i>
   <i name="SCISSOR">      0.00000000</i>
   <i type="int" name="NOMEGA">     0</i>
   <i type="int" name="NOMEGAR">     0</i>
   <i type="int" name="NBANDSGW">    -1</i>
   <i type="int" name="NBANDSO">    -1</i>
   <i type="int" name="NBANDSV">    -1</i>
   <i type="int" name="NELM">     1</i>
   <i type="int" name="NELMHF">     1</i>
   <i type="int" name="DIM">     3</i>
   <i type="int" name="ANTIRES">     0</i>
   <i name="OMEGAMAX">    -30.00000000</i>
   <i name="OMEGAMIN">    -30.00000000</i>
   <i name="OMEGATL">   -200.00000000</i>
   <i type="int" name="OMEGAGRID">     0</i>
   <i name="CSHIFT">     -0.10000000</i>
   <i type="logical" name="SELFENERGY"> F  </i>
   <i type="logical" name="LSPECTRAL"> F  </i>
   <i type="logical" name="LSPECTRALGW"> F  </i>
   <i type="logical" name="LSINGLES"> F  </i>
   <i type="logical" name="LFERMIGW"> F  </i>
   <i type="logical" name="ODDONLYGW"> F  </i>
   <i type="logical" name="EVENONLYGW"> F  </i>
   <i type="int" name="NKREDLFX">     1</i>
   <i type="int" name="NKREDLFY">     1</i>
   <i type="int" name="NKREDLFZ">     1</i>
   <i type="int" name="MAXMEM">  1800</i>
   <i type="int" name="TELESCOPE">     0</i>
   <i type="int" name="TAUPAR">     1</i>
   <i type="int" name="OMEGAPAR">    -1</i>
   <i name="LAMBDA">      1.00000000</i>
  </separator>
  <separator name="External order field" >
   <i name="OFIELD_KAPPA">      0.00000000</i>
   <v name="OFIELD_K">      0.00000000      0.00000000      0.00000000</v>
   <i name="OFIELD_Q6_NEAR">      0.00000000</i>
   <i name="OFIELD_Q6_FAR">      0.00000000</i>
   <i name="OFIELD_A">      0.00000000</i>
  </separator>
 </parameters>
 <atominfo>
  <atoms>      27 </atoms>
  <types>       4 </types>
  <array name="atoms" >
   <dimension dim="1">ion</dimension>
   <field type="string">element</field>
   <field type="int">atomtype</field>
   <set>
    <rc><c>V </c><c>   1</c></rc>
    <rc><c>V </c><c>   1</c></rc>
    <rc><c>V </c><c>   1</c></rc>
    <rc><c>Mo</c><c>   2</c></rc>
    <rc><c>Mo</c><c>   2</c></rc>
    <rc><c>Mo</c><c>   2</c></rc>
    <rc><c>W </c><c>   3</c></rc>
    <rc><c>W </c><c>   3</c></rc>
    <rc><c>W </c><c>   3</c></rc>
    <rc><c>S </c><c>   4</c></rc>
    <rc><c>S </c><c>   4</c></rc>
    <rc><c>S </c><c>   4</c></rc>
    <rc><c>S </c><c>   4</c></rc>
    <rc><c>S </c><c>   4</c></rc>
    <rc><c>S </c><c>   4</c></rc>
    <rc><c>S </c><c>   4</c></rc>
    <rc><c>S </c><c>   4</c></rc>
    <rc><c>S </c><c>   4</c></rc>
    <rc><c>S </c><c>   4</c></rc>
    <rc><c>S </c><c>   4</c></rc>
    <rc><c>S </c><c>   4</c></rc>
    <rc><c>S </c><c>   4</c></rc>
    <rc><c>S </c><c>   4</c></rc>
    <rc><c>S </c><c>   4</c></rc>
    <rc><c>S </c><c>   4</c></rc>
    <rc><c>S </c><c>   4</c></rc>
    <rc><c>S </c><c>   4</c></rc>
   </set>
  </array>
  <array name="atomtypes" >
   <dimension dim="1">type</dimension>
   <field type="int">atomspertype</field>
   <field type="string">element</field>
   <field>mass</field>
   <field>valence</field>
   <field type="string">pseudopotential</field>
   <set>
    <rc><c>   3</c><c>V </c><c>     50.94100000</c><c>      5.00000000</c><c> PAW_PBE V 08Apr2002                    </c></rc>
    <rc><c>   3</c><c>Mo</c><c>     95.94000000</c><c>      6.00000000</c><c> PAW_PBE Mo 08Apr2002                   </c></rc>
    <rc><c>   3</c><c>W </c><c>    183.85000000</c><c>      6.00000000</c><c> PAW_PBE W 08Apr2002                    </c></rc>
    <rc><c>  18</c><c>S </c><c>     32.06600000</c><c>      6.00000000</c><c>  PAW_PBE S 17Jan2003                   </c></rc>
   </set>
  </array>
 </atominfo>
 <structure name="initialpos" >
  <crystal>
   <varray name="basis" >
    <v>       8.66999996       5.03999989       0.00000000 </v>
    <v>      -8.66999982       5.04000013       0.00000000 </v>
    <v>       0.00000000       0.00000000      30.00000000 </v>
   </varray>
   <i name="volume">   2621.80797419 </i>
   <varray name="rec_basis" >
    <v>       0.05767013       0.09920635       0.00000000 </v>
    <v>      -0.05767013       0.09920635       0.00000000 </v>
    <v>       0.00000000       0.00000000       0.03333333 </v>
   </varray>
  </crystal>
  <varray name="positions" >
   <v>       0.00000000       0.00000000       0.00000000 </v>
   <v>       1.00000000       0.33333334       0.00000000 </v>
   <v>       0.00000000       0.66666669       0.00000000 </v>
   <v>       0.33333334       0.00000000       0.00000000 </v>
   <v>       0.33333334       0.33333334       0.00000000 </v>
   <v>       0.33333334       0.66666669       0.00000000 </v>
   <v>       0.66666669       0.00000000       0.00000000 </v>
   <v>       0.66666669       0.33333334       0.00000000 </v>
   <v>       0.66666669       0.66666669       0.00000000 </v>
   <v>       0.11068511       0.22244981       0.95539999 </v>
   <v>       0.22244981       0.11068511       0.04460000 </v>
   <v>       0.11068511       0.55578315       0.95539999 </v>
   <v>       0.22244981       0.44401845       0.04460000 </v>
   <v>       0.11068511       0.88911647       0.95539999 </v>
   <v>       0.22244981       0.77735180       0.04460000 </v>
   <v>       0.44401845       0.22244981       0.95539999 </v>
   <v>       0.55578315       0.11068511       0.04460000 </v>
   <v>       0.44401845       0.55578315       0.95539999 </v>
   <v>       0.55578315       0.44401845       0.04460000 </v>
   <v>       0.44401845       0.88911647       0.95539999 </v>
   <v>       0.55578315       0.77735180       0.04460000 </v>
   <v>       0.77735180       0.22244981       0.95539999 </v>
   <v>       0.88911647       0.11068511       0.04460000 </v>
   <v>       0.77735180       0.55578315       0.95539999 </v>
   <v>       0.88911647       0.44401845       0.04460000 </v>
   <v>       0.77735180       0.88911647       0.95539999 </v>
   <v>       0.88911647       0.77735180       0.04460000 </v>
  </varray>
 </structure>
 <calculation>
  <scstep>
   <time name="dav">   27.28   27.38</time>
   <time name="total">   27.36   27.49</time>
   <energy>
    <i name="alphaZ">     81.65567618 </i>
    <i name="ewald">  41891.19377234 </i>
    <i name="hartreedc"> -47723.83903790 </i>
    <i name="XCdc">   -242.92449831 </i>
    <i name="pawpsdc">   3467.42045192 </i>
    <i name="pawaedc">  -2871.19716117 </i>
    <i name="eentropy">     -0.41841843 </i>
    <i name="bandstr">   -140.48540793 </i>
    <i name="atom">   6761.44252427 </i>
    <i name="e_fr_energy">   1222.84790098 </i>
    <i name="e_wo_entrp">   1223.26631941 </i>
    <i name="e_0_energy">   1223.05711019 </i>
   </energy>
  </scstep>
  <scstep>
   <time name="dav">   41.16   41.26</time>
   <time name="total">   41.17   41.27</time>
   <energy>
    <i name="e_fr_energy">     31.39494298 </i>
    <i name="e_wo_entrp">     31.61000405 </i>
    <i name="e_0_energy">     31.50247352 </i>
   </energy>
  </scstep>
  <scstep>
   <time name="dav">   31.94   32.01</time>
   <time name="total">   31.94   32.02</time>
   <energy>
    <i name="e_fr_energy">   -196.87783276 </i>
    <i name="e_wo_entrp">   -196.66569638 </i>
    <i name="e_0_energy">   -196.77176457 </i>
   </energy>
  </scstep>
  <scstep>
   <time name="dav">   41.04   41.14</time>
   <time name="total">   41.05   41.15</time>
   <energy>
    <i name="e_fr_energy">   -209.14260452 </i>
    <i name="e_wo_entrp">   -208.88803960 </i>
    <i name="e_0_energy">   -209.01532206 </i>
   </energy>
  </scstep>
  <scstep>
   <time name="dav">   32.45   32.52</time>
   <time name="total">   33.06   33.15</time>
   <energy>
    <i name="e_fr_energy">   -209.39855807 </i>
    <i name="e_wo_entrp">   -209.14200225 </i>
    <i name="e_0_energy">   -209.27028016 </i>
   </energy>
  </scstep>
  <scstep>
   <time name="dav">   41.69   41.79</time>
   <time name="total">   42.38   42.50</time>
   <energy>
    <i name="e_fr_energy">   -239.83770252 </i>
    <i name="e_wo_entrp">   -239.57588942 </i>
    <i name="e_0_energy">   -239.70679597 </i>
   </energy>
  </scstep>
  <scstep>
   <time name="dav">   45.69   45.80</time>
   <time name="total">   46.27   46.39</time>
   <energy>
    <i name="e_fr_energy">   -188.24172464 </i>
    <i name="e_wo_entrp">   -187.93843896 </i>
    <i name="e_0_energy">   -188.09008180 </i>
   </energy>
  </scstep>
  <scstep>
   <time name="dav">   34.67   34.75</time>
   <time name="total">   35.24   35.33</time>
   <energy>
    <i name="e_fr_energy">   -190.88373015 </i>
    <i name="e_wo_entrp">   -190.57388417 </i>
    <i name="e_0_energy">   -190.72880716 </i>
   </energy>
  </scstep>
  <scstep>
   <time name="dav">   35.51   35.60</time>
   <time name="total">   36.13   36.22</time>
   <energy>
    <i name="e_fr_energy">   -188.43495386 </i>
    <i name="e_wo_entrp">   -188.10948021 </i>
    <i name="e_0_energy">   -188.27221703 </i>
   </energy>
  </scstep>
  <scstep>
   <time name="dav">   35.21   35.29</time>
   <time name="total">   35.86   35.96</time>
   <energy>
    <i name="e_fr_energy">   -186.96046737 </i>
    <i name="e_wo_entrp">   -186.60677240 </i>
    <i name="e_0_energy">   -186.78361988 </i>
   </energy>
  </scstep>
  <scstep>
   <time name="dav">   33.19   33.27</time>
   <time name="total">   33.87   33.96</time>
   <energy>
    <i name="e_fr_energy">   -186.87003687 </i>
    <i name="e_wo_entrp">   -186.51963640 </i>
    <i name="e_0_energy">   -186.69483663 </i>
   </energy>
  </scstep>
  <scstep>
   <time name="dav">   35.39   35.48</time>
   <time name="total">   36.05   36.14</time>
   <energy>
    <i name="e_fr_energy">   -186.91194123 </i>
    <i name="e_wo_entrp">   -186.56680722 </i>
    <i name="e_0_energy">   -186.73937422 </i>
   </energy>
  </scstep>
  <scstep>
   <time name="dav">   34.51   34.59</time>
   <time name="total">   35.28   35.37</time>
   <energy>
    <i name="e_fr_energy">   -186.84005245 </i>
    <i name="e_wo_entrp">   -186.49387379 </i>
    <i name="e_0_energy">   -186.66696312 </i>
   </energy>
  </scstep>
  <scstep>
   <time name="dav">   40.04   40.14</time>
   <time name="total">   40.78   40.89</time>
   <energy>
    <i name="e_fr_energy">   -186.83319912 </i>
    <i name="e_wo_entrp">   -186.48745734 </i>
    <i name="e_0_energy">   -186.66032823 </i>
   </energy>
  </scstep>
  <scstep>
   <time name="dav">   39.73   39.83</time>
   <time name="total">   40.51   40.62</time>
   <energy>
    <i name="e_fr_energy">   -186.83330242 </i>
    <i name="e_wo_entrp">   -186.48821580 </i>
    <i name="e_0_energy">   -186.66075911 </i>
   </energy>
  </scstep>
  <scstep>
   <time name="dav">   39.81   39.91</time>
   <time name="total">   40.56   40.66</time>
   <energy>
    <i name="e_fr_energy">   -186.82831029 </i>
    <i name="e_wo_entrp">   -186.48318977 </i>
    <i name="e_0_energy">   -186.65575003 </i>
   </energy>
  </scstep>
  <scstep>
   <time name="dav">   40.34   40.44</time>
   <time name="total">   41.11   41.21</time>
   <energy>
    <i name="e_fr_energy">   -186.82763447 </i>
    <i name="e_wo_entrp">   -186.48189934 </i>
    <i name="e_0_energy">   -186.65476690 </i>
   </energy>
  </scstep>
  <scstep>
   <time name="dav">   37.22   37.31</time>
   <time name="total">   37.96   38.06</time>
   <energy>
    <i name="e_fr_energy">   -186.82714034 </i>
    <i name="e_wo_entrp">   -186.48139557 </i>
    <i name="e_0_energy">   -186.65426795 </i>
   </energy>
  </scstep>
  <scstep>
   <time name="dav">   37.65   37.74</time>
   <time name="total">   38.41   38.51</time>
   <energy>
    <i name="e_fr_energy">   -186.82712369 </i>
    <i name="e_wo_entrp">   -186.48210964 </i>
    <i name="e_0_energy">   -186.65461666 </i>
   </energy>
  </scstep>
  <scstep>
   <time name="dav">   36.92   37.01</time>
   <time name="total">   37.63   37.73</time>
   <energy>
    <i name="e_fr_energy">   -186.82837024 </i>
    <i name="e_wo_entrp">   -186.48301392 </i>
    <i name="e_0_energy">   -186.65569208 </i>
   </energy>
  </scstep>
  <scstep>
   <time name="dav">   28.58   28.65</time>
   <time name="total">   29.33   29.40</time>
   <energy>
    <i name="e_fr_energy">   -186.82909042 </i>
    <i name="e_wo_entrp">   -186.48387127 </i>
    <i name="e_0_energy">   -186.65648085 </i>
   </energy>
  </scstep>
  <scstep>
   <time name="dav">   26.59   26.65</time>
   <time name="total">   27.35   27.42</time>
   <energy>
    <i name="e_fr_energy">   -186.82958282 </i>
    <i name="e_wo_entrp">   -186.48452453 </i>
    <i name="e_0_energy">   -186.65705367 </i>
   </energy>
  </scstep>
  <scstep>
   <time name="dav">   26.42   26.49</time>
   <time name="total">   27.22   27.29</time>
   <energy>
    <i name="e_fr_energy">   -186.83052968 </i>
    <i name="e_wo_entrp">   -186.48542069 </i>
    <i name="e_0_energy">   -186.65797518 </i>
   </energy>
  </scstep>
  <scstep>
   <time name="dav">   25.35   25.41</time>
   <time name="total">   26.11   26.18</time>
   <energy>
    <i name="e_fr_energy">   -186.83103928 </i>
    <i name="e_wo_entrp">   -186.48593316 </i>
    <i name="e_0_energy">   -186.65848622 </i>
   </energy>
  </scstep>
  <scstep>
   <time name="dav">   23.95   24.00</time>
   <time name="total">   24.74   24.81</time>
   <energy>
    <i name="e_fr_energy">   -186.83130309 </i>
    <i name="e_wo_entrp">   -186.48620986 </i>
    <i name="e_0_energy">   -186.65875647 </i>
   </energy>
  </scstep>
  <scstep>
   <time name="dav">   23.12   23.18</time>
   <time name="total">   23.86   23.92</time>
   <energy>
    <i name="e_fr_energy">   -186.83166137 </i>
    <i name="e_wo_entrp">   -186.48654719 </i>
    <i name="e_0_energy">   -186.65910428 </i>
   </energy>
  </scstep>
  <scstep>
   <time name="dav">   21.52   21.57</time>
   <time name="total">   22.31   22.37</time>
   <energy>
    <i name="e_fr_energy">   -186.83178844 </i>
    <i name="e_wo_entrp">   -186.48667527 </i>
    <i name="e_0_energy">   -186.65923186 </i>
   </energy>
  </scstep>
  <scstep>
   <time name="dav">   21.30   21.36</time>
   <time name="total">   21.37   21.43</time>
   <energy>
    <i name="alphaZ">     81.65567618 </i>
    <i name="ewald">  41891.19377234 </i>
    <i name="hartreedc"> -47833.65557482 </i>
    <i name="XCdc">   -231.60658862 </i>
    <i name="pawpsdc">   4192.01612569 </i>
    <i name="pawaedc">  -3610.01717924 </i>
    <i name="eentropy">     -0.34511234 </i>
    <i name="bandstr">  -1437.51549334 </i>
    <i name="atom">   6761.44252427 </i>
    <i name="e_fr_energy">   -186.83184989 </i>
    <i name="e_wo_entrp">   -186.48673755 </i>
    <i name="e_0_energy">   -186.65929372 </i>
   </energy>
  </scstep>
  <structure>
   <crystal>
    <varray name="basis" >
     <v>       8.66999996       5.03999989       0.00000000 </v>
     <v>      -8.66999982       5.04000013       0.00000000 </v>
     <v>       0.00000000       0.00000000      30.00000000 </v>
    </varray>
    <i name="volume">   2621.80797419 </i>
    <varray name="rec_basis" >
     <v>       0.05767013       0.09920635       0.00000000 </v>
     <v>      -0.05767013       0.09920635       0.00000000 </v>
     <v>       0.00000000       0.00000000       0.03333333 </v>
    </varray>
   </crystal>
   <varray name="positions" >
    <v>       0.00000000       0.00000000       0.00000000 </v>
    <v>       1.00000000       0.33333334       0.00000000 </v>
    <v>       0.00000000       0.66666669       0.00000000 </v>
    <v>       0.33333334       0.00000000       0.00000000 </v>
    <v>       0.33333334       0.33333334       0.00000000 </v>
    <v>       0.33333334       0.66666669       0.00000000 </v>
    <v>       0.66666669       0.00000000       0.00000000 </v>
    <v>       0.66666669       0.33333334       0.00000000 </v>
    <v>       0.66666669       0.66666669       0.00000000 </v>
    <v>       0.11068511       0.22244981       0.95539999 </v>
    <v>       0.22244981       0.11068511       0.04460000 </v>
    <v>       0.11068511       0.55578315       0.95539999 </v>
    <v>       0.22244981       0.44401845       0.04460000 </v>
    <v>       0.11068511       0.88911647       0.95539999 </v>
    <v>       0.22244981       0.77735180       0.04460000 </v>
    <v>       0.44401845       0.22244981       0.95539999 </v>
    <v>       0.55578315       0.11068511       0.04460000 </v>
    <v>       0.44401845       0.55578315       0.95539999 </v>
    <v>       0.55578315       0.44401845       0.04460000 </v>
    <v>       0.44401845       0.88911647       0.95539999 </v>
    <v>       0.55578315       0.77735180       0.04460000 </v>
    <v>       0.77735180       0.22244981       0.95539999 </v>
    <v>       0.88911647       0.11068511       0.04460000 </v>
    <v>       0.77735180       0.55578315       0.95539999 </v>
    <v>       0.88911647       0.44401845       0.04460000 </v>
    <v>       0.77735180       0.88911647       0.95539999 </v>
    <v>       0.88911647       0.77735180       0.04460000 </v>
   </varray>
  </structure>
  <varray name="forces" >
   <v>       0.21010255       0.35032419      -0.00125410 </v>
   <v>       0.21013592       0.35027562      -0.00128848 </v>
   <v>       0.21013702       0.35025502      -0.00127016 </v>
   <v>      -0.01642957      -0.02428555      -0.10816807 </v>
   <v>      -0.01637965      -0.02433875      -0.10817305 </v>
   <v>      -0.01635286      -0.02437728      -0.10818426 </v>
   <v>      -0.22395507      -0.38878482       0.15295423 </v>
   <v>      -0.22388974      -0.38889702       0.15295710 </v>
   <v>      -0.22383927      -0.38887732       0.15296913 </v>
   <v>      -0.31822819      -0.65880939      -1.43065123 </v>
   <v>      -0.52780582      -0.69419826       2.13690791 </v>
   <v>      -0.31816206      -0.65885555      -1.43058839 </v>
   <v>      -0.52790760      -0.69421100       2.13690177 </v>
   <v>      -0.31810439      -0.65882032      -1.43058784 </v>
   <v>      -0.52789197      -0.69417587       2.13686620 </v>
   <v>       0.18860498       0.12614153      -2.91944785 </v>
   <v>      -0.02948698       0.17771670       2.92610498 </v>
   <v>       0.18856884       0.12623488      -2.91943788 </v>
   <v>      -0.02954790       0.17781883       2.92613254 </v>
   <v>       0.18853625       0.12622430      -2.91941050 </v>
   <v>      -0.02948768       0.17778261       2.92610385 </v>
   <v>       0.47692917       0.58561680      -2.14100804 </v>
   <v>       0.24021696       0.52633307       1.38453143 </v>
   <v>       0.47685601       0.58566655      -2.14100966 </v>
   <v>       0.24026608       0.52638750       1.38452005 </v>
   <v>       0.47685036       0.58558423      -2.14102198 </v>
   <v>       0.24026459       0.52626931       1.38455228 </v>
  </varray>
  <varray name="stress" >
   <v>       7.26829514       0.11500127      -1.62686030 </v>
   <v>       0.11500143       4.47788469      -0.10591461 </v>
   <v>      -1.62686043      -0.10591463      30.32439039 </v>
  </varray>
  <energy>
   <i name="e_fr_energy">   -186.83184989 </i>
   <i name="e_wo_entrp">   -186.65929372 </i>
   <i name="e_0_energy">     -0.34511234 </i>
  </energy>
  <time name="totalsc"> 1014.76 1017.50</time>
 </calculation>
 <calculation>
  <scstep>
   <time name="dav">   27.25   27.31</time>
   <time name="total">   28.04   28.11</time>
   <energy>
    <i name="alphaZ">     78.92316648 </i>
    <i name="ewald">  39379.76869229 </i>
    <i name="hartreedc"> -45337.10214226 </i>
    <i name="XCdc">   -239.07244745 </i>
    <i name="pawpsdc">   4192.01010236 </i>
    <i name="pawaedc">  -3610.01103478 </i>
    <i name="eentropy">     -0.28518021 </i>
    <i name="bandstr">  -1412.74730131 </i>
    <i name="atom">   6761.44252427 </i>
    <i name="e_fr_energy">   -187.07362060 </i>
    <i name="e_wo_entrp">   -186.78844039 </i>
    <i name="e_0_energy">   -186.93103049 </i>
   </energy>
  </scstep>
  <scstep>
   <time name="dav">   38.11   38.20</time>
   <time name="total">   38.84   38.94</time>
   <energy>
    <i name="e_fr_energy">   -189.36455554 </i>
    <i name="e_wo_entrp">   -189.04375447 </i>
    <i name="e_0_energy">   -189.20415501 </i>
   </energy>
  </scstep>
  <scstep>
   <time name="dav">   40.84   40.94</time>
   <time name="total">   41.63   41.74</time>
   <energy>
    <i name="e_fr_energy">   -189.28255935 </i>
    <i name="e_wo_entrp">   -189.01604535 </i>
    <i name="e_0_energy">   -189.14930235 </i>
   </energy>
  </scstep>
  <scstep>
   <time name="dav">   38.72   38.81</time>
   <time name="total">   39.51   39.62</time>
   <energy>
    <i name="e_fr_energy">   -188.74415592 </i>
    <i name="e_wo_entrp">   -188.46187665 </i>
    <i name="e_0_energy">   -188.60301629 </i>
   </energy>
  </scstep>
  <scstep>
   <time name="dav">   38.27   38.36</time>
   <time name="total">   39.06   39.16</time>
   <energy>
    <i name="e_fr_energy">   -188.70889513 </i>
    <i name="e_wo_entrp">   -188.42194425 </i>
    <i name="e_0_energy">   -188.56541969 </i>
   </energy>
  </scstep>
  <scstep>
   <time name="dav">   36.43   36.52</time>
   <time name="total">   37.19   37.29</time>
   <energy>
    <i name="e_fr_energy">   -188.69107167 </i>
    <i name="e_wo_entrp">   -188.40775660 </i>
    <i name="e_0_energy">   -188.54941414 </i>
   </energy>
  </scstep>
  <scstep>
   <time name="dav">   39.44   39.53</time>
   <time name="total">   40.23   40.34</time>
   <energy>
    <i name="e_fr_energy">   -188.67932581 </i>
    <i name="e_wo_entrp">   -188.39603548 </i>
    <i name="e_0_energy">   -188.53768065 </i>
   </energy>
  </scstep>
  <scstep>
   <time name="dav">   40.49   40.59</time>
   <time name="total">   41.28   41.39</time>
   <energy>
    <i name="e_fr_energy">   -188.67935781 </i>
    <i name="e_wo_entrp">   -188.39626748 </i>
    <i name="e_0_energy">   -188.53781264 </i>
   </energy>
  </scstep>
  <scstep>
   <time name="dav">   41.07   41.17</time>
   <time name="total">   41.88   41.99</time>
   <energy>
    <i name="e_fr_energy">   -188.67730765 </i>
    <i name="e_wo_entrp">   -188.39499452 </i>
    <i name="e_0_energy">   -188.53615108 </i>
   </energy>
  </scstep>
  <scstep>
   <time name="dav">   39.48   39.57</time>
   <time name="total">   40.24   40.35</time>
   <energy>
    <i name="e_fr_energy">   -188.67746179 </i>
    <i name="e_wo_entrp">   -188.39515436 </i>
    <i name="e_0_energy">   -188.53630807 </i>
   </energy>
  </scstep>
  <scstep>
   <time name="dav">   34.96   35.05</time>
   <time name="total">   35.78   35.87</time>
   <energy>
    <i name="e_fr_energy">   -188.67731497 </i>
    <i name="e_wo_entrp">   -188.39500415 </i>
    <i name="e_0_energy">   -188.53615956 </i>
   </energy>
  </scstep>
  <scstep>
   <time name="dav">   29.14   29.21</time>
   <time name="total">   29.94   30.02</time>
   <energy>
    <i name="e_fr_energy">   -188.67742343 </i>
    <i name="e_wo_entrp">   -188.39509710 </i>
    <i name="e_0_energy">   -188.53626027 </i>
   </energy>
  </scstep>
  <scstep>
   <time name="dav">   28.71   28.78</time>
   <time name="total">   28.77   28.85</time>
   <energy>
    <i name="alphaZ">     78.92316648 </i>
    <i name="ewald">  39379.76869229 </i>
    <i name="hartreedc"> -45347.91529962 </i>
    <i name="XCdc">   -237.98415555 </i>
    <i name="pawpsdc">   3949.39762358 </i>
    <i name="pawaedc">  -3363.89068682 </i>
    <i name="eentropy">     -0.28234581 </i>
    <i name="bandstr">  -1408.13700686 </i>
    <i name="atom">   6761.44252427 </i>
    <i name="e_fr_energy">   -188.67748804 </i>
    <i name="e_wo_entrp">   -188.39514223 </i>
    <i name="e_0_energy">   -188.53631514 </i>
   </energy>
  </scstep>
  <structure>
   <crystal>
    <varray name="basis" >
     <v>       8.85594545       5.10890259       0.00000000 </v>
     <v>      -8.85255592       5.10307228       0.00000000 </v>
     <v>       0.00000000       0.00000000      30.00000000 </v>
    </varray>
    <i name="volume">   2712.58126716 </i>
    <varray name="rec_basis" >
     <v>       0.05643782       0.09790552       0.00000000 </v>
     <v>      -0.05650230       0.09794301       0.00000000 </v>
     <v>       0.00000000       0.00000000       0.03333333 </v>
    </varray>
   </crystal>
   <varray name="positions" >
    <v>       0.00226118       0.00109210      -0.00000202 </v>
    <v>       1.00226104       0.33442512      -0.00000207 </v>
    <v>       0.00226095       0.66775836      -0.00000204 </v>
    <v>       0.33317140      -0.00007052      -0.00017394 </v>
    <v>       0.33317129       0.33326243      -0.00017395 </v>
    <v>       0.33317118       0.66659551      -0.00017397 </v>
    <v>       0.66418289      -0.00123764       0.00024596 </v>
    <v>       0.66418254       0.33209499       0.00024597 </v>
    <v>       0.66418277       0.66542829       0.00024599 </v>
    <v>       0.10664670       0.22018212       0.95309938 </v>
    <v>       0.21765895       0.10883113       0.04803634 </v>
    <v>       0.10664666       0.55351506       0.95309948 </v>
    <v>       0.21765861       0.44216470       0.04803633 </v>
    <v>       0.10664699       0.88684838       0.95309948 </v>
    <v>       0.21765882       0.77549817       0.04803627 </v>
    <v>       0.44514689       0.22252879       0.95070526 </v>
    <v>       0.55655166       0.11161770       0.04930543 </v>
    <v>       0.44514724       0.55586268       0.95070528 </v>
    <v>       0.55655198       0.44495170       0.04930548 </v>
    <v>       0.44514710       0.88919603       0.95070532 </v>
    <v>       0.55655198       0.77828470       0.04930543 </v>
    <v>       0.78148144       0.22392566       0.95195706 </v>
    <v>       0.89230381       0.11253581       0.04682645 </v>
    <v>       0.78148147       0.55725945       0.95195706 </v>
    <v>       0.89230420       0.44586927       0.04682643 </v>
    <v>       0.78148106       0.89059239       0.95195704 </v>
    <v>       0.89230363       0.77920206       0.04682648 </v>
   </varray>
  </structure>
  <varray name="forces" >
   <v>       0.18312242       0.31562230       0.06810479 </v>
   <v>       0.17841739       0.31999205       0.06791881 </v>
   <v>       0.18367314       0.31729695       0.06787481 </v>
   <v>       0.13688476       0.23118626      -0.01981134 </v>
   <v>       0.13306929       0.23760718      -0.02000604 </v>
   <v>       0.13214227       0.23256636      -0.01968391 </v>
   <v>      -0.27731588      -0.48626292      -0.08571473 </v>
   <v>      -0.27771846      -0.48190696      -0.08634899 </v>
   <v>      -0.27589350      -0.48626955      -0.08597158 </v>
   <v>      -0.00877154      -0.04084113      -0.02870030 </v>
   <v>      -0.03519378      -0.07724504       0.02474353 </v>
   <v>      -0.00920671      -0.04168081      -0.02776930 </v>
   <v>      -0.03555302      -0.07844659       0.02421065 </v>
   <v>      -0.00572132      -0.04335373      -0.02861720 </v>
   <v>      -0.03625632      -0.07954596       0.02366929 </v>
   <v>       0.05711941       0.11140444      -0.17156162 </v>
   <v>       0.06152864       0.08451739       0.15652063 </v>
   <v>       0.05752893       0.11168399      -0.17197686 </v>
   <v>       0.06075677       0.08507212       0.15691504 </v>
   <v>       0.05733623       0.11134486      -0.17251466 </v>
   <v>       0.06174964       0.08474444       0.15557950 </v>
   <v>      -0.05615198      -0.06908895       0.27909498 </v>
   <v>      -0.05857772      -0.07326433      -0.22099273 </v>
   <v>      -0.05698528      -0.06765629       0.27986824 </v>
   <v>      -0.05721860      -0.07191601      -0.22161976 </v>
   <v>      -0.05738769      -0.07063516       0.27859035 </v>
   <v>      -0.05537709      -0.07492494      -0.22180162 </v>
  </varray>
  <varray name="stress" >
   <v>     -19.93037681      -0.05873141      -0.06837994 </v>
   <v>      -0.05873116     -19.55933303      -0.19171401 </v>
   <v>      -0.06838009      -0.19171410      -1.76145967 </v>
  </varray>
  <energy>
   <i name="e_fr_energy">   -188.67748804 </i>
   <i name="e_wo_entrp">   -188.53631514 </i>
   <i name="e_0_energy">     -0.28234581 </i>
  </energy>
  <time name="totalsc">  542.32  543.73</time>
 </calculation>
 <calculation>
  <scstep>
   <time name="dav">   27.13   27.20</time>
   <time name="total">   27.90   27.97</time>
   <energy>
    <i name="alphaZ">     82.35376022 </i>
    <i name="ewald">  41306.46171369 </i>
    <i name="hartreedc"> -47305.30106068 </i>
    <i name="XCdc">   -233.85474750 </i>
    <i name="pawpsdc">   3949.14268437 </i>
    <i name="pawaedc">  -3363.63375796 </i>
    <i name="eentropy">     -0.23691851 </i>
    <i name="bandstr">  -1386.96442168 </i>
    <i name="atom">   6761.44252427 </i>
    <i name="e_fr_energy">   -190.59022377 </i>
    <i name="e_wo_entrp">   -190.35330526 </i>
    <i name="e_0_energy">   -190.47176451 </i>
   </energy>
  </scstep>
  <scstep>
   <time name="dav">   41.45   41.54</time>
   <time name="total">   42.22   42.33</time>
   <energy>
    <i name="e_fr_energy">   -190.43626105 </i>
    <i name="e_wo_entrp">   -190.20851290 </i>
    <i name="e_0_energy">   -190.32238697 </i>
   </energy>
  </scstep>
  <scstep>
   <time name="dav">   40.88   40.98</time>
   <time name="total">   41.63   41.74</time>
   <energy>
    <i name="e_fr_energy">   -190.11542922 </i>
    <i name="e_wo_entrp">   -189.86350921 </i>
    <i name="e_0_energy">   -189.98946922 </i>
   </energy>
  </scstep>
  <scstep>
   <time name="dav">   41.15   41.25</time>
   <time name="total">   41.94   42.05</time>
   <energy>
    <i name="e_fr_energy">   -189.86537919 </i>
    <i name="e_wo_entrp">   -189.63323336 </i>
    <i name="e_0_energy">   -189.74930628 </i>
   </energy>
  </scstep>
  <scstep>
   <time name="dav">   41.22   41.32</time>
   <time name="total">   41.99   42.10</time>
   <energy>
    <i name="e_fr_energy">   -189.79729628 </i>
    <i name="e_wo_entrp">   -189.55892148 </i>
    <i name="e_0_energy">   -189.67810888 </i>
   </energy>
  </scstep>
  <scstep>
   <time name="dav">   38.55   38.64</time>
   <time name="total">   39.34   39.44</time>
   <energy>
    <i name="e_fr_energy">   -189.78045062 </i>
    <i name="e_wo_entrp">   -189.54263217 </i>
    <i name="e_0_energy">   -189.66154140 </i>
   </energy>
  </scstep>
  <scstep>
   <time name="dav">   39.78   39.88</time>
   <time name="total">   40.53   40.64</time>
   <energy>
    <i name="e_fr_energy">   -189.78252819 </i>
    <i name="e_wo_entrp">   -189.54445794 </i>
    <i name="e_0_energy">   -189.66349307 </i>
   </energy>
  </scstep>
  <scstep>
   <time name="dav">   41.08   41.18</time>
   <time name="total">   41.87   41.98</time>
   <energy>
    <i name="e_fr_energy">   -189.78063923 </i>
    <i name="e_wo_entrp">   -189.54250680 </i>
    <i name="e_0_energy">   -189.66157302 </i>
   </energy>
  </scstep>
  <scstep>
   <time name="dav">   37.26   37.35</time>
   <time name="total">   38.06   38.16</time>
   <energy>
    <i name="e_fr_energy">   -189.78103136 </i>
    <i name="e_wo_entrp">   -189.54265864 </i>
    <i name="e_0_energy">   -189.66184500 </i>
   </energy>
  </scstep>
  <scstep>
   <time name="dav">   34.46   34.54</time>
   <time name="total">   35.20   35.30</time>
   <energy>
    <i name="e_fr_energy">   -189.78094403 </i>
    <i name="e_wo_entrp">   -189.54256557 </i>
    <i name="e_0_energy">   -189.66175480 </i>
   </energy>
  </scstep>
  <scstep>
   <time name="dav">   28.89   28.96</time>
   <time name="total">   28.96   29.04</time>
   <energy>
    <i name="alphaZ">     82.35376022 </i>
    <i name="ewald">  41306.46171369 </i>
    <i name="hartreedc"> -47278.57600891 </i>
    <i name="XCdc">   -235.25064171 </i>
    <i name="pawpsdc">   4038.39800323 </i>
    <i name="pawaedc">  -3454.09453177 </i>
    <i name="eentropy">     -0.23839594 </i>
    <i name="bandstr">  -1410.27733330 </i>
    <i name="atom">   6761.44252427 </i>
    <i name="e_fr_energy">   -189.78091022 </i>
    <i name="e_wo_entrp">   -189.54251428 </i>
    <i name="e_0_energy">   -189.66171225 </i>
   </energy>
  </scstep>
  <structure>
   <crystal>
    <varray name="basis" >
     <v>       8.66745700       5.00181653       0.00000000 </v>
     <v>      -8.66477889       4.99721658       0.00000000 </v>
     <v>       0.00000000       0.00000000      30.00000000 </v>
    </varray>
    <i name="volume">   2599.58382420 </i>
    <varray name="rec_basis" >
     <v>       0.05766942       0.09999422       0.00000000 </v>
     <v>      -0.05772251       0.10002513       0.00000000 </v>
     <v>       0.00000000       0.00000000       0.03333333 </v>
    </varray>
   </crystal>
   <varray name="positions" >
    <v>       0.00296226       0.00144176       0.00003658 </v>
    <v>       1.00296488       0.33478658       0.00003642 </v>
    <v>       0.00296534       0.66811028       0.00003642 </v>
    <v>       0.33368757       0.00018295      -0.00018517 </v>
    <v>       0.33369448       0.33353026      -0.00018529 </v>
    <v>       0.33368509       0.66685584      -0.00018513 </v>
    <v>       0.66310739      -0.00178096       0.00019739 </v>
    <v>       0.66311390       0.33155931       0.00019703 </v>
    <v>       0.66310863       0.66488359       0.00019727 </v>
    <v>       0.10657030       0.22012254       0.95308311 </v>
    <v>       0.21749660       0.10873631       0.04805036 </v>
    <v>       0.10656845       0.55345450       0.95308374 </v>
    <v>       0.21749392       0.44206822       0.04805005 </v>
    <v>       0.10656934       0.88678169       0.95308326 </v>
    <v>       0.21749162       0.77540054       0.04804968 </v>
    <v>       0.44538714       0.22265943       0.95060803 </v>
    <v>       0.55675138       0.11169933       0.04939414 </v>
    <v>       0.44538834       0.55599339       0.95060781 </v>
    <v>       0.55675189       0.44503499       0.04939441 </v>
    <v>       0.44538745       0.88932637       0.95060755 </v>
    <v>       0.55675229       0.77836650       0.04939360 </v>
    <v>       0.78131256       0.22386456       0.95211523 </v>
    <v>       0.89212565       0.11247008       0.04670121 </v>
    <v>       0.78131418       0.55720153       0.95211566 </v>
    <v>       0.89212959       0.44580449       0.04670083 </v>
    <v>       0.78130842       0.89052989       0.95211492 </v>
    <v>       0.89212578       0.77913049       0.04670078 </v>
   </varray>
  </structure>
  <varray name="forces" >
   <v>       0.17458949       0.30471385       0.07491730 </v>
   <v>       0.17451337       0.30724919       0.07408968 </v>
   <v>       0.17606682       0.30640706       0.07439553 </v>
   <v>       0.18563111       0.31556811       0.00804032 </v>
   <v>       0.18109786       0.31968037       0.00787743 </v>
   <v>       0.18518264       0.32114768       0.00841930 </v>
   <v>      -0.30465646      -0.53944434      -0.10454713 </v>
   <v>      -0.30586308      -0.53573808      -0.10528246 </v>
   <v>      -0.30767607      -0.53811887      -0.10474371 </v>
   <v>      -0.03926592      -0.09589862      -0.48199471 </v>
   <v>      -0.06562657      -0.12638238       0.49888116 </v>
   <v>      -0.03772029      -0.09619279      -0.48357290 </v>
   <v>      -0.06635026      -0.12684510       0.49951805 </v>
   <v>      -0.03958175      -0.09489077      -0.48357536 </v>
   <v>      -0.06501344      -0.12613369       0.50059745 </v>
   <v>       0.01072050       0.02957105      -0.73870800 </v>
   <v>       0.01554382       0.00986367       0.73491928 </v>
   <v>       0.00996710       0.02970219      -0.73999142 </v>
   <v>       0.01614258       0.00948113       0.73595345 </v>
   <v>       0.01081755       0.02905246      -0.74015412 </v>
   <v>       0.01573589       0.00931793       0.73628936 </v>
   <v>       0.01633399       0.05499429      -0.20051538 </v>
   <v>       0.00881694       0.04181373       0.20996695 </v>
   <v>       0.01583220       0.05430904      -0.20200362 </v>
   <v>       0.01004147       0.04019465       0.21177942 </v>
   <v>       0.01626087       0.05521287      -0.20187038 </v>
   <v>       0.00845965       0.04136538       0.21131450 </v>
  </varray>
  <varray name="stress" >
   <v>     -10.25554107      -0.01493425      -0.08582320 </v>
   <v>      -0.01493431      -9.92979888      -0.19549191 </v>
   <v>      -0.08582336      -0.19549180       6.49449496 </v>
  </varray>
  <energy>
   <i name="e_fr_energy">   -189.78091022 </i>
   <i name="e_wo_entrp">   -189.66171225 </i>
   <i name="e_0_energy">     -0.23839594 </i>
  </energy>
  <time name="totalsc">  478.15  479.39</time>
 </calculation>
 <calculation>
  <scstep>
   <time name="dav">   26.58   26.64</time>
   <time name="total">   27.24   27.31</time>
   <energy>
    <i name="alphaZ">     85.88651979 </i>
    <i name="ewald">  42866.43579434 </i>
    <i name="hartreedc"> -48883.44666331 </i>
    <i name="XCdc">   -232.91371255 </i>
    <i name="pawpsdc">   4038.61194433 </i>
    <i name="pawaedc">  -3454.30875468 </i>
    <i name="eentropy">     -0.19151153 </i>
    <i name="bandstr">  -1372.85762348 </i>
    <i name="atom">   6761.44252427 </i>
    <i name="e_fr_energy">   -191.34148281 </i>
    <i name="e_wo_entrp">   -191.14997128 </i>
    <i name="e_0_energy">   -191.24572705 </i>
   </energy>
  </scstep>
  <scstep>
   <time name="dav">   40.28   40.38</time>
   <time name="total">   40.95   41.06</time>
   <energy>
    <i name="e_fr_energy">   -191.21396319 </i>
    <i name="e_wo_entrp">   -191.02394404 </i>
    <i name="e_0_energy">   -191.11895361 </i>
   </energy>
  </scstep>
  <scstep>
   <time name="dav">   40.09   40.19</time>
   <time name="total">   40.75   40.86</time>
   <energy>
    <i name="e_fr_energy">   -191.31454602 </i>
    <i name="e_wo_entrp">   -191.09352568 </i>
    <i name="e_0_energy">   -191.20403585 </i>
   </energy>
  </scstep>
  <scstep>
   <time name="dav">   40.18   40.28</time>
   <time name="total">   40.85   40.96</time>
   <energy>
    <i name="e_fr_energy">   -191.00677270 </i>
    <i name="e_wo_entrp">   -190.82344662 </i>
    <i name="e_0_energy">   -190.91510966 </i>
   </energy>
  </scstep>
  <scstep>
   <time name="dav">   40.18   40.28</time>
   <time name="total">   40.86   40.97</time>
   <energy>
    <i name="e_fr_energy">   -190.85462995 </i>
    <i name="e_wo_entrp">   -190.65718840 </i>
    <i name="e_0_energy">   -190.75590917 </i>
   </energy>
  </scstep>
  <scstep>
   <time name="dav">   37.08   37.17</time>
   <time name="total">   37.77   37.87</time>
   <energy>
    <i name="e_fr_energy">   -190.82788971 </i>
    <i name="e_wo_entrp">   -190.63098317 </i>
    <i name="e_0_energy">   -190.72943644 </i>
   </energy>
  </scstep>
  <scstep>
   <time name="dav">   40.07   40.17</time>
   <time name="total">   40.74   40.84</time>
   <energy>
    <i name="e_fr_energy">   -190.83859910 </i>
    <i name="e_wo_entrp">   -190.64058697 </i>
    <i name="e_0_energy">   -190.73959303 </i>
   </energy>
  </scstep>
  <scstep>
   <time name="dav">   38.49   38.59</time>
   <time name="total">   39.16   39.26</time>
   <energy>
    <i name="e_fr_energy">   -190.82399767 </i>
    <i name="e_wo_entrp">   -190.62619669 </i>
    <i name="e_0_energy">   -190.72509718 </i>
   </energy>
  </scstep>
  <scstep>
   <time name="dav">   41.07   41.17</time>
   <time name="total">   41.70   41.82</time>
   <energy>
    <i name="e_fr_energy">   -190.82486703 </i>
    <i name="e_wo_entrp">   -190.62681348 </i>
    <i name="e_0_energy">   -190.72584026 </i>
   </energy>
  </scstep>
  <scstep>
   <time name="dav">   40.53   40.62</time>
   <time name="total">   41.19   41.30</time>
   <energy>
    <i name="e_fr_energy">   -190.82437105 </i>
    <i name="e_wo_entrp">   -190.62628768 </i>
    <i name="e_0_energy">   -190.72532936 </i>
   </energy>
  </scstep>
  <scstep>
   <time name="dav">   30.66   30.73</time>
   <time name="total">   30.72   30.80</time>
   <energy>
    <i name="alphaZ">     85.88651979 </i>
    <i name="ewald">  42866.43579434 </i>
    <i name="hartreedc"> -48854.35290526 </i>
    <i name="XCdc">   -234.26661170 </i>
    <i name="pawpsdc">   4064.92777000 </i>
    <i name="pawaedc">  -3480.81627358 </i>
    <i name="eentropy">     -0.19819245 </i>
    <i name="bandstr">  -1399.88298137 </i>
    <i name="atom">   6761.44252427 </i>
    <i name="e_fr_energy">   -190.82435596 </i>
    <i name="e_wo_entrp">   -190.62616351 </i>
    <i name="e_0_energy">   -190.72525973 </i>
   </energy>
  </scstep>
  <structure>
   <crystal>
    <varray name="basis" >
     <v>       8.48267010       4.90078856       0.00000000 </v>
     <v>      -8.47984741       4.89593204       0.00000000 </v>
     <v>       0.00000000       0.00000000      30.00000000 </v>
    </varray>
    <i name="volume">   2492.65546515 </i>
    <varray name="rec_basis" >
     <v>       0.05892429       0.10205800       0.00000000 </v>
     <v>      -0.05898274       0.10209197       0.00000000 </v>
     <v>       0.00000000       0.00000000       0.03333333 </v>
    </varray>
   </crystal>
   <varray name="positions" >
    <v>       0.00546976       0.00270851       0.00019802 </v>
    <v>       1.00549015       0.33605814       0.00019559 </v>
    <v>       0.00549024       0.66938101       0.00019653 </v>
    <v>       0.33662780       0.00163535      -0.00014449 </v>
    <v>       0.33663723       0.33502016      -0.00014492 </v>
    <v>       0.33667563       0.66834929      -0.00014344 </v>
    <v>       0.65843910      -0.00416103      -0.00003594 </v>
    <v>       0.65846171       0.32920644      -0.00003791 </v>
    <v>       0.65843461       0.66253266      -0.00003642 </v>
    <v>       0.10564169       0.21956744       0.95169185 </v>
    <v>       0.21629595       0.10810012       0.04949463 </v>
    <v>       0.10564786       0.55289043       0.95168705 </v>
    <v>       0.21628907       0.44143415       0.04949665 </v>
    <v>       0.10564991       0.88624788       0.95168729 </v>
    <v>       0.21630365       0.77476769       0.04949992 </v>
    <v>       0.44533721       0.22266709       0.94858563 </v>
    <v>       0.55661386       0.11158318       0.05141836 </v>
    <v>       0.44533443       0.55600593       0.94858200 </v>
    <v>       0.55661376       0.44490990       0.05142132 </v>
    <v>       0.44533328       0.88932942       0.94858173 </v>
    <v>       0.55661004       0.77824431       0.05142266 </v>
    <v>       0.78213681       0.22435910       0.95128585 </v>
    <v>       0.89280964       0.11289369       0.04750832 </v>
    <v>       0.78212744       0.55768775       0.95128125 </v>
    <v>       0.89280015       0.44620617       0.04751381 </v>
    <v>       0.78213995       0.89102884       0.95128200 </v>
    <v>       0.89280354       0.77956084       0.04751255 </v>
   </varray>
  </structure>
  <varray name="forces" >
   <v>       0.19390104       0.33509141       0.04196844 </v>
   <v>       0.19320212       0.33374883       0.04117201 </v>
   <v>       0.19179597       0.33446334       0.04123291 </v>
   <v>       0.21251874       0.36772007       0.01806737 </v>
   <v>       0.21417578       0.36748662       0.01859374 </v>
   <v>       0.21249036       0.36613710       0.01668244 </v>
   <v>      -0.32904938      -0.57399889      -0.04445858 </v>
   <v>      -0.33084001      -0.57404679      -0.04405704 </v>
   <v>      -0.32865998      -0.57438780      -0.04380854 </v>
   <v>       0.02470103       0.02438550      -0.37173899 </v>
   <v>       0.00276392       0.00855842       0.35219128 </v>
   <v>       0.02388683       0.02514964      -0.36942611 </v>
   <v>       0.00273629       0.00886819       0.35357133 </v>
   <v>       0.02592524       0.02257019      -0.36963641 </v>
   <v>       0.00228203       0.00693018       0.35203492 </v>
   <v>      -0.04578015      -0.08069735      -0.60237766 </v>
   <v>      -0.01255842      -0.02018328       0.55426299 </v>
   <v>      -0.04513038      -0.08023645      -0.60394342 </v>
   <v>      -0.01360637      -0.01960917       0.55367768 </v>
   <v>      -0.04531591      -0.08026673      -0.60366706 </v>
   <v>      -0.01271216      -0.01960973       0.55628800 </v>
   <v>      -0.00692698      -0.01270239      -0.05029789 </v>
   <v>      -0.03888666      -0.04786571       0.10202353 </v>
   <v>      -0.00715112      -0.01085875      -0.04894037 </v>
   <v>      -0.03913858      -0.04582124       0.10045415 </v>
   <v>      -0.00703982      -0.01274516      -0.04996457 </v>
   <v>      -0.03758342      -0.04808004       0.10009586 </v>
  </varray>
  <varray name="stress" >
   <v>      -5.89133255       0.18230078      -0.04737864 </v>
   <v>       0.18230095      -5.70825966       0.04880918 </v>
   <v>      -0.04737871       0.04880932       4.72227386 </v>
  </varray>
  <energy>
   <i name="e_fr_energy">   -190.82435596 </i>
   <i name="e_wo_entrp">   -190.72525973 </i>
   <i name="e_0_energy">     -0.19819245 </i>
  </energy>
  <time name="totalsc">  481.81  483.06</time>
 </calculation>
 <calculation>
  <scstep>
   <time name="dav">   27.44   27.51</time>
   <time name="total">   28.12   28.19</time>
   <energy>
    <i name="alphaZ">     90.30308068 </i>
    <i name="ewald">  44719.11968942 </i>
    <i name="hartreedc"> -50763.10329898 </i>
    <i name="XCdc">   -231.81093848 </i>
    <i name="pawpsdc">   4064.92630458 </i>
    <i name="pawaedc">  -3480.81042659 </i>
    <i name="eentropy">     -0.14850181 </i>
    <i name="bandstr">  -1352.08386818 </i>
    <i name="atom">   6761.44252427 </i>
    <i name="e_fr_energy">   -192.16543508 </i>
    <i name="e_wo_entrp">   -192.01693327 </i>
    <i name="e_0_energy">   -192.09118417 </i>
   </energy>
  </scstep>
  <scstep>
   <time name="dav">   39.78   39.88</time>
   <time name="total">   40.46   40.57</time>
   <energy>
    <i name="e_fr_energy">   -192.17632873 </i>
    <i name="e_wo_entrp">   -191.98676047 </i>
    <i name="e_0_energy">   -192.08154460 </i>
   </energy>
  </scstep>
  <scstep>
   <time name="dav">   40.12   40.22</time>
   <time name="total">   40.79   40.90</time>
   <energy>
    <i name="e_fr_energy">   -192.01456438 </i>
    <i name="e_wo_entrp">   -191.88634986 </i>
    <i name="e_0_energy">   -191.95045712 </i>
   </energy>
  </scstep>
  <scstep>
   <time name="dav">   41.09   41.18</time>
   <time name="total">   41.76   41.87</time>
   <energy>
    <i name="e_fr_energy">   -191.84434973 </i>
    <i name="e_wo_entrp">   -191.64966799 </i>
    <i name="e_0_energy">   -191.74700886 </i>
   </energy>
  </scstep>
  <scstep>
   <time name="dav">   40.61   40.71</time>
   <time name="total">   41.29   41.39</time>
   <energy>
    <i name="e_fr_energy">   -191.66157653 </i>
    <i name="e_wo_entrp">   -191.50200152 </i>
    <i name="e_0_energy">   -191.58178902 </i>
   </energy>
  </scstep>
  <scstep>
   <time name="dav">   40.99   41.09</time>
   <time name="total">   41.67   41.78</time>
   <energy>
    <i name="e_fr_energy">   -191.63118951 </i>
    <i name="e_wo_entrp">   -191.46421620 </i>
    <i name="e_0_energy">   -191.54770285 </i>
   </energy>
  </scstep>
  <scstep>
   <time name="dav">   41.01   41.11</time>
   <time name="total">   41.69   41.80</time>
   <energy>
    <i name="e_fr_energy">   -191.63232208 </i>
    <i name="e_wo_entrp">   -191.46425801 </i>
    <i name="e_0_energy">   -191.54829004 </i>
   </energy>
  </scstep>
  <scstep>
   <time name="dav">   41.17   41.27</time>
   <time name="total">   41.86   41.97</time>
   <energy>
    <i name="e_fr_energy">   -191.62593115 </i>
    <i name="e_wo_entrp">   -191.45859430 </i>
    <i name="e_0_energy">   -191.54226273 </i>
   </energy>
  </scstep>
  <scstep>
   <time name="dav">   41.05   41.15</time>
   <time name="total">   41.71   41.82</time>
   <energy>
    <i name="e_fr_energy">   -191.62629584 </i>
    <i name="e_wo_entrp">   -191.45836370 </i>
    <i name="e_0_energy">   -191.54232977 </i>
   </energy>
  </scstep>
  <scstep>
   <time name="dav">   41.46   41.56</time>
   <time name="total">   42.14   42.25</time>
   <energy>
    <i name="e_fr_energy">   -191.62650457 </i>
    <i name="e_wo_entrp">   -191.45850006 </i>
    <i name="e_0_energy">   -191.54250231 </i>
   </energy>
  </scstep>
  <scstep>
   <time name="dav">   34.34   34.42</time>
   <time name="total">   35.02   35.11</time>
   <energy>
    <i name="e_fr_energy">   -191.62615320 </i>
    <i name="e_wo_entrp">   -191.45811832 </i>
    <i name="e_0_energy">   -191.54213576 </i>
   </energy>
  </scstep>
  <scstep>
   <time name="dav">   27.33   27.40</time>
   <time name="total">   27.40   27.47</time>
   <energy>
    <i name="alphaZ">     90.30308068 </i>
    <i name="ewald">  44719.11968942 </i>
    <i name="hartreedc"> -50728.48227746 </i>
    <i name="XCdc">   -233.34326660 </i>
    <i name="pawpsdc">   4088.00641491 </i>
    <i name="pawaedc">  -3503.97364648 </i>
    <i name="eentropy">     -0.16802226 </i>
    <i name="bandstr">  -1384.53066777 </i>
    <i name="atom">   6761.44252427 </i>
    <i name="e_fr_energy">   -191.62617129 </i>
    <i name="e_wo_entrp">   -191.45814903 </i>
    <i name="e_0_energy">   -191.54216016 </i>
   </energy>
  </scstep>
  <structure>
   <crystal>
    <varray name="basis" >
     <v>       8.27298635       4.79246059       0.00000000 </v>
     <v>      -8.25879445       4.76791057       0.00000000 </v>
     <v>       0.00000000       0.00000000      30.00000000 </v>
    </varray>
    <i name="volume">   2370.74417965 </i>
    <varray name="rec_basis" >
     <v>       0.06033435       0.10450889       0.00000000 </v>
     <v>      -0.06064502       0.10468847       0.00000000 </v>
     <v>       0.00000000       0.00000000       0.03333333 </v>
    </varray>
   </crystal>
   <varray name="positions" >
    <v>       0.01085581       0.00540515       0.00039100 </v>
    <v>       1.01086430       0.33873598       0.00038472 </v>
    <v>       0.01086262       0.67208381       0.00038638 </v>
    <v>       0.34287905       0.00475413      -0.00004972 </v>
    <v>       0.34289073       0.33813211      -0.00004838 </v>
    <v>       0.34293842       0.67146633      -0.00005302 </v>
    <v>       0.64891596      -0.00896287      -0.00026559 </v>
    <v>       0.64892890       0.32442198      -0.00026666 </v>
    <v>       0.64890542       0.65774088      -0.00026386 </v>
    <v>       0.10563935       0.21944154       0.94968954 </v>
    <v>       0.21593128       0.10793217       0.05145906 </v>
    <v>       0.10565459       0.55277389       0.94968940 </v>
    <v>       0.21592758       0.44127236       0.05146737 </v>
    <v>       0.10564182       0.88611319       0.94968976 </v>
    <v>       0.21593003       0.77458985       0.05146752 </v>
    <v>       0.44394217       0.22196908       0.94553073 </v>
    <v>       0.55605832       0.11130647       0.05431553 </v>
    <v>       0.44394537       0.55531132       0.94552010 </v>
    <v>       0.55605739       0.44463943       0.05431766 </v>
    <v>       0.44394334       0.88863103       0.94552107 </v>
    <v>       0.55605659       0.77797131       0.05432990 </v>
    <v>       0.78255358       0.22458444       0.95052488 </v>
    <v>       0.89259248       0.11290894       0.04840536 </v>
    <v>       0.78255512       0.55792662       0.95052193 </v>
    <v>       0.89259271       0.44623229       0.04840882 </v>
    <v>       0.78256298       0.89125806       0.95052060 </v>
    <v>       0.89258854       0.77957496       0.04840578 </v>
   </varray>
  </structure>
  <varray name="forces" >
   <v>       0.25210687       0.43856682      -0.02597649 </v>
   <v>       0.25393903       0.43864587      -0.02420449 </v>
   <v>       0.25432398       0.43667249      -0.02400176 </v>
   <v>       0.05417211       0.09041267      -0.15318750 </v>
   <v>       0.05384256       0.09174522      -0.15428566 </v>
   <v>       0.05634706       0.08745959      -0.15143658 </v>
   <v>      -0.21830169      -0.37521037       0.11320036 </v>
   <v>      -0.22048228      -0.37481841       0.11304447 </v>
   <v>      -0.22013327      -0.37589432       0.11237790 </v>
   <v>       0.07402478       0.12965704      -0.05877076 </v>
   <v>       0.10834867       0.18971414       0.11099775 </v>
   <v>       0.07347404       0.12925938      -0.05808709 </v>
   <v>       0.10812572       0.18903689       0.10777255 </v>
   <v>       0.07434409       0.12949619      -0.05941129 </v>
   <v>       0.10806578       0.18926333       0.10799547 </v>
   <v>      -0.09199598      -0.16047986      -0.26365484 </v>
   <v>      -0.00020022      -0.00021939       0.25893695 </v>
   <v>      -0.09063104      -0.16015497      -0.26225890 </v>
   <v>      -0.00055398       0.00024807       0.26015937 </v>
   <v>      -0.09199524      -0.15969100      -0.26206811 </v>
   <v>      -0.00049670       0.00018436       0.25700888 </v>
   <v>      -0.08164067      -0.14496176       0.23676910 </v>
   <v>      -0.09723537      -0.16587087      -0.21697782 </v>
   <v>      -0.08279416      -0.14520433       0.23606696 </v>
   <v>      -0.09605000      -0.16547154      -0.21891834 </v>
   <v>      -0.08213097      -0.14607746       0.23606930 </v>
   <v>      -0.09647315      -0.16630779      -0.21715941 </v>
  </varray>
  <varray name="stress" >
   <v>      -0.34956428       0.51343786       0.39250879 </v>
   <v>       0.51343791       0.28352078       0.70164784 </v>
   <v>       0.39250885       0.70164776      -0.31785303 </v>
  </varray>
  <energy>
   <i name="e_fr_energy">   -191.62617129 </i>
   <i name="e_wo_entrp">   -191.54216016 </i>
   <i name="e_0_energy">     -0.16802226 </i>
  </energy>
  <time name="totalsc">  523.58  524.96</time>
 </calculation>
 <calculation>
  <scstep>
   <time name="dav">   27.26   27.33</time>
   <time name="total">   27.92   27.99</time>
   <energy>
    <i name="alphaZ">     90.34443219 </i>
    <i name="ewald">  44713.31527098 </i>
    <i name="hartreedc"> -50724.00470010 </i>
    <i name="XCdc">   -233.41760677 </i>
    <i name="pawpsdc">   4087.90386824 </i>
    <i name="pawaedc">  -3503.86613759 </i>
    <i name="eentropy">     -0.15886950 </i>
    <i name="bandstr">  -1383.29602495 </i>
    <i name="atom">   6761.44252427 </i>
    <i name="e_fr_energy">   -191.73724324 </i>
    <i name="e_wo_entrp">   -191.57837374 </i>
    <i name="e_0_energy">   -191.65780849 </i>
   </energy>
  </scstep>
  <scstep>
   <time name="dav">   41.25   41.35</time>
   <time name="total">   41.91   42.02</time>
   <energy>
    <i name="e_fr_energy">   -191.82515375 </i>
    <i name="e_wo_entrp">   -191.63158763 </i>
    <i name="e_0_energy">   -191.72837069 </i>
   </energy>
  </scstep>
  <scstep>
   <time name="dav">   41.09   41.19</time>
   <time name="total">   41.76   41.87</time>
   <energy>
    <i name="e_fr_energy">   -191.76780485 </i>
    <i name="e_wo_entrp">   -191.60841946 </i>
    <i name="e_0_energy">   -191.68811215 </i>
   </energy>
  </scstep>
  <scstep>
   <time name="dav">   40.44   40.54</time>
   <time name="total">   41.11   41.22</time>
   <energy>
    <i name="e_fr_energy">   -191.76219220 </i>
    <i name="e_wo_entrp">   -191.59668047 </i>
    <i name="e_0_energy">   -191.67943633 </i>
   </energy>
  </scstep>
  <scstep>
   <time name="dav">   41.15   41.25</time>
   <time name="total">   41.82   41.93</time>
   <energy>
    <i name="e_fr_energy">   -191.76222508 </i>
    <i name="e_wo_entrp">   -191.59521092 </i>
    <i name="e_0_energy">   -191.67871800 </i>
   </energy>
  </scstep>
  <scstep>
   <time name="dav">   41.49   41.59</time>
   <time name="total">   42.17   42.28</time>
   <energy>
    <i name="e_fr_energy">   -191.76209526 </i>
    <i name="e_wo_entrp">   -191.59574564 </i>
    <i name="e_0_energy">   -191.67892045 </i>
   </energy>
  </scstep>
  <scstep>
   <time name="dav">   40.81   40.91</time>
   <time name="total">   41.49   41.59</time>
   <energy>
    <i name="e_fr_energy">   -191.76138881 </i>
    <i name="e_wo_entrp">   -191.59543669 </i>
    <i name="e_0_energy">   -191.67841275 </i>
   </energy>
  </scstep>
  <scstep>
   <time name="dav">   32.28   32.36</time>
   <time name="total">   32.35   32.43</time>
   <energy>
    <i name="alphaZ">     90.34443219 </i>
    <i name="ewald">  44713.31527098 </i>
    <i name="hartreedc"> -50724.41198391 </i>
    <i name="XCdc">   -233.39898713 </i>
    <i name="pawpsdc">   4085.92879104 </i>
    <i name="pawaedc">  -3501.85656520 </i>
    <i name="eentropy">     -0.16581818 </i>
    <i name="bandstr">  -1382.95897433 </i>
    <i name="atom">   6761.44252427 </i>
    <i name="e_fr_energy">   -191.76131025 </i>
    <i name="e_wo_entrp">   -191.59549208 </i>
    <i name="e_0_energy">   -191.67840117 </i>
   </energy>
  </scstep>
  <structure>
   <crystal>
    <varray name="basis" >
     <v>       8.27067974       4.80696914       0.00000000 </v>
     <v>      -8.24321865       4.75943202       0.00000000 </v>
     <v>       0.00000000       0.00000000      30.00000000 </v>
    </varray>
    <i name="volume">   2369.65906744 </i>
    <varray name="rec_basis" >
     <v>       0.06025464       0.10435955       0.00000000 </v>
     <v>      -0.06085647       0.10470721       0.00000000 </v>
     <v>       0.00000000       0.00000000       0.03333333 </v>
    </varray>
   </crystal>
   <varray name="positions" >
    <v>       0.01389689       0.00693075       0.00035054 </v>
    <v>       1.01391114       0.34025631       0.00034711 </v>
    <v>       0.01390048       0.67359315       0.00034912 </v>
    <v>       0.34356234       0.00508692      -0.00029889 </v>
    <v>       0.34357985       0.33847270      -0.00029933 </v>
    <v>       0.34361332       0.67177761      -0.00029936 </v>
    <v>       0.64625886      -0.01028451      -0.00008318 </v>
    <v>       0.64626730       0.32310902      -0.00008450 </v>
    <v>       0.64623933       0.65642138      -0.00008277 </v>
    <v>       0.10651913       0.21988391       0.94957153 </v>
    <v>       0.21721659       0.10858020       0.05166227 </v>
    <v>       0.10653082       0.55321591       0.94957252 </v>
    <v>       0.21720879       0.44191765       0.05166538 </v>
    <v>       0.10652171       0.88655384       0.94957072 </v>
    <v>       0.21721220       0.77523636       0.05166588 </v>
    <v>       0.44283481       0.22141249       0.94506739 </v>
    <v>       0.55605001       0.11130260       0.05476990 </v>
    <v>       0.44284373       0.55475239       0.94505898 </v>
    <v>       0.55605042       0.44463901       0.05477403 </v>
    <v>       0.44284004       0.88807847       0.94506027 </v>
    <v>       0.55604947       0.77797040       0.05478122 </v>
    <v>       0.78157772       0.22408765       0.95090094 </v>
    <v>       0.89145765       0.11234922       0.04806246 </v>
    <v>       0.78157465       0.55743207       0.95089683 </v>
    <v>       0.89146343       0.44567110       0.04806276 </v>
    <v>       0.78158007       0.89075706       0.95089550 </v>
    <v>       0.89145371       0.77901079       0.04806258 </v>
   </varray>
  </structure>
  <varray name="forces" >
   <v>       0.27699916       0.47966424       0.05061179 </v>
   <v>       0.27730562       0.47895472       0.05022452 </v>
   <v>       0.27653783       0.47854153       0.05074461 </v>
   <v>       0.05464194       0.09296687      -0.03245949 </v>
   <v>       0.05440215       0.09056115      -0.03237992 </v>
   <v>       0.05235954       0.09163673      -0.03312613 </v>
   <v>      -0.24409790      -0.41995347       0.03846336 </v>
   <v>      -0.24243645      -0.42011440       0.03901139 </v>
   <v>      -0.24250597      -0.41771160       0.03995597 </v>
   <v>       0.04322963       0.07453247      -0.10603547 </v>
   <v>       0.07037176       0.12362379       0.04966530 </v>
   <v>       0.04263042       0.07462325      -0.10579361 </v>
   <v>       0.07104236       0.12336814       0.05037888 </v>
   <v>       0.04235769       0.07458604      -0.10517731 </v>
   <v>       0.07092799       0.12383329       0.04930354 </v>
   <v>      -0.04406319      -0.07911227      -0.19672382 </v>
   <v>      -0.03324644      -0.05535162       0.18377955 </v>
   <v>      -0.04438762      -0.07930234      -0.19735780 </v>
   <v>      -0.03372644      -0.05522589       0.18480840 </v>
   <v>      -0.04370219      -0.07908823      -0.19526466 </v>
   <v>      -0.03306294      -0.05568302       0.18395896 </v>
   <v>      -0.05438784      -0.09630321       0.29845755 </v>
   <v>      -0.06890885      -0.11887973      -0.28693097 </v>
   <v>      -0.05457659      -0.09613344       0.29786829 </v>
   <v>      -0.06985298      -0.11881034      -0.28676771 </v>
   <v>      -0.05399533      -0.09646347       0.29841348 </v>
   <v>      -0.06985536      -0.11875918      -0.28762871 </v>
  </varray>
  <varray name="stress" >
   <v>      -0.05229103      -0.01807261       0.09325838 </v>
   <v>      -0.01807251      -0.07484218       0.19175891 </v>
   <v>       0.09325857       0.19175917      -1.23973593 </v>
  </varray>
  <energy>
   <i name="e_fr_energy">   -191.76131025 </i>
   <i name="e_wo_entrp">   -191.67840117 </i>
   <i name="e_0_energy">     -0.16581818 </i>
  </energy>
  <time name="totalsc">  370.26  371.22</time>
 </calculation>
 <calculation>
  <scstep>
   <time name="dav">   27.32   27.39</time>
   <time name="total">   28.00   28.07</time>
   <energy>
    <i name="alphaZ">     90.37381671 </i>
    <i name="ewald">  44730.44662881 </i>
    <i name="hartreedc"> -50741.61688772 </i>
    <i name="XCdc">   -233.37208639 </i>
    <i name="pawpsdc">   4085.94024577 </i>
    <i name="pawaedc">  -3501.86675983 </i>
    <i name="eentropy">     -0.15721830 </i>
    <i name="bandstr">  -1383.04433510 </i>
    <i name="atom">   6761.44252427 </i>
    <i name="e_fr_energy">   -191.85407178 </i>
    <i name="e_wo_entrp">   -191.69685348 </i>
    <i name="e_0_energy">   -191.77546263 </i>
   </energy>
  </scstep>
  <scstep>
   <time name="dav">   41.16   41.26</time>
   <time name="total">   41.85   41.96</time>
   <energy>
    <i name="e_fr_energy">   -191.88177820 </i>
    <i name="e_wo_entrp">   -191.70841133 </i>
    <i name="e_0_energy">   -191.79509476 </i>
   </energy>
  </scstep>
  <scstep>
   <time name="dav">   40.18   40.28</time>
   <time name="total">   40.80   40.91</time>
   <energy>
    <i name="e_fr_energy">   -191.86977188 </i>
    <i name="e_wo_entrp">   -191.71524737 </i>
    <i name="e_0_energy">   -191.79250963 </i>
   </energy>
  </scstep>
  <scstep>
   <time name="dav">   39.55   39.64</time>
   <time name="total">   40.22   40.32</time>
   <energy>
    <i name="e_fr_energy">   -191.86603910 </i>
    <i name="e_wo_entrp">   -191.70675674 </i>
    <i name="e_0_energy">   -191.78639792 </i>
   </energy>
  </scstep>
  <scstep>
   <time name="dav">   40.26   40.36</time>
   <time name="total">   40.93   41.25</time>
   <energy>
    <i name="e_fr_energy">   -191.86831269 </i>
    <i name="e_wo_entrp">   -191.70760977 </i>
    <i name="e_0_energy">   -191.78796123 </i>
   </energy>
  </scstep>
  <scstep>
   <time name="dav">   40.19   40.29</time>
   <time name="total">   40.85   40.96</time>
   <energy>
    <i name="e_fr_energy">   -191.86556451 </i>
    <i name="e_wo_entrp">   -191.70575986 </i>
    <i name="e_0_energy">   -191.78566219 </i>
   </energy>
  </scstep>
  <scstep>
   <time name="dav">   33.44   33.52</time>
   <time name="total">   34.09   34.18</time>
   <energy>
    <i name="e_fr_energy">   -191.86555656 </i>
    <i name="e_wo_entrp">   -191.70608616 </i>
    <i name="e_0_energy">   -191.78582136 </i>
   </energy>
  </scstep>
  <scstep>
   <time name="dav">   33.60   33.69</time>
   <time name="total">   34.28   34.37</time>
   <energy>
    <i name="e_fr_energy">   -191.86555775 </i>
    <i name="e_wo_entrp">   -191.70612213 </i>
    <i name="e_0_energy">   -191.78583994 </i>
   </energy>
  </scstep>
  <scstep>
   <time name="dav">   30.74   30.81</time>
   <time name="total">   30.80   30.88</time>
   <energy>
    <i name="alphaZ">     90.37381671 </i>
    <i name="ewald">  44730.44662881 </i>
    <i name="hartreedc"> -50741.89183378 </i>
    <i name="XCdc">   -233.35967963 </i>
    <i name="pawpsdc">   4089.16921820 </i>
[...]
       <r>  -17.4268    1.0000 </r>
       <r>  -16.7144    1.0000 </r>
       <r>  -16.7143    1.0000 </r>
       <r>  -16.5651    1.0000 </r>
       <r>  -16.5650    1.0000 </r>
       <r>  -16.2160    1.0000 </r>
       <r>  -16.1899    1.0000 </r>
       <r>  -16.1721    1.0000 </r>
       <r>  -16.1719    1.0000 </r>
       <r>  -15.7928    1.0000 </r>
       <r>  -15.7533    1.0000 </r>
       <r>  -15.7532    1.0000 </r>
       <r>  -15.6849    1.0000 </r>
       <r>  -15.5001    1.0000 </r>
       <r>  -15.5000    1.0000 </r>
       <r>  -15.4538    1.0000 </r>
       <r>  -15.2665    1.0000 </r>
       <r>   -9.8273    1.0000 </r>
       <r>   -9.3998    1.0000 </r>
       <r>   -9.1912    1.0000 </r>
       <r>   -9.1911    1.0000 </r>
       <r>   -8.7676    1.0000 </r>
       <r>   -8.7676    1.0000 </r>
       <r>   -8.7489    1.0000 </r>
       <r>   -8.5577    1.0000 </r>
       <r>   -8.5576    1.0000 </r>
       <r>   -8.3743    1.0000 </r>
       <r>   -8.1577    1.0000 </r>
       <r>   -8.0813    1.0000 </r>
       <r>   -8.0788    1.0000 </r>
       <r>   -8.0788    1.0000 </r>
       <r>   -7.7872    1.0000 </r>
       <r>   -7.7870    1.0000 </r>
       <r>   -7.7256    1.0000 </r>
       <r>   -7.7094    1.0000 </r>
       <r>   -7.7093    1.0000 </r>
       <r>   -7.5207    1.0000 </r>
       <r>   -7.5206    1.0000 </r>
       <r>   -7.4295    1.0000 </r>
       <r>   -7.0391    1.0000 </r>
       <r>   -7.0104    1.0000 </r>
       <r>   -7.0103    1.0000 </r>
       <r>   -6.8529    1.0000 </r>
       <r>   -6.7464    1.0000 </r>
       <r>   -6.7463    1.0000 </r>
       <r>   -6.6415    1.0000 </r>
       <r>   -6.5701    1.0000 </r>
       <r>   -6.5700    1.0000 </r>
       <r>   -6.5637    1.0000 </r>
       <r>   -6.3607    1.0000 </r>
       <r>   -6.3105    1.0000 </r>
       <r>   -6.3105    1.0000 </r>
       <r>   -6.2616    1.0000 </r>
       <r>   -6.0800    1.0000 </r>
       <r>   -6.0800    1.0000 </r>
       <r>   -5.9815    1.0000 </r>
       <r>   -5.8630    1.0000 </r>
       <r>   -5.8629    1.0000 </r>
       <r>   -5.7288    1.0000 </r>
       <r>   -5.7287    1.0000 </r>
       <r>   -5.5623    1.0000 </r>
       <r>   -5.5622    1.0000 </r>
       <r>   -5.4490    1.0000 </r>
       <r>   -5.2059    1.0000 </r>
       <r>   -5.0630    1.0000 </r>
       <r>   -5.0007    1.0000 </r>
       <r>   -5.0006    1.0000 </r>
       <r>   -4.7528    1.0000 </r>
       <r>   -4.5580    1.0000 </r>
       <r>   -4.5579    1.0000 </r>
       <r>   -4.5085    1.0000 </r>
       <r>   -4.2549    1.0000 </r>
       <r>   -4.2548    1.0000 </r>
       <r>   -4.0545    1.0000 </r>
       <r>   -4.0542    1.0000 </r>
       <r>   -3.8589    1.0000 </r>
       <r>   -3.8588    1.0000 </r>
       <r>   -3.4430    0.9228 </r>
       <r>   -3.4424    0.9221 </r>
       <r>   -2.9846    0.0346 </r>
       <r>   -2.9845    0.0345 </r>
       <r>   -2.6378    0.0000 </r>
       <r>   -2.6376    0.0000 </r>
       <r>   -2.5654    0.0000 </r>
       <r>   -2.4660    0.0000 </r>
       <r>   -2.1625    0.0000 </r>
       <r>   -2.1624    0.0000 </r>
       <r>   -2.0458    0.0000 </r>
       <r>   -1.9109    0.0000 </r>
       <r>   -1.9108    0.0000 </r>
       <r>   -1.5843    0.0000 </r>
       <r>   -1.1827    0.0000 </r>
       <r>   -1.1743    0.0000 </r>
       <r>   -1.1742    0.0000 </r>
       <r>   -1.0850    0.0000 </r>
      </set>
      <set comment="kpoint 31">
       <r>  -17.4907    1.0000 </r>
       <r>  -17.3327    1.0000 </r>
       <r>  -16.8908    1.0000 </r>
       <r>  -16.6225    1.0000 </r>
       <r>  -16.5712    1.0000 </r>
       <r>  -16.4528    1.0000 </r>
       <r>  -16.2167    1.0000 </r>
       <r>  -16.1890    1.0000 </r>
       <r>  -16.1836    1.0000 </r>
       <r>  -16.1782    1.0000 </r>
       <r>  -15.8946    1.0000 </r>
       <r>  -15.7942    1.0000 </r>
       <r>  -15.6834    1.0000 </r>
       <r>  -15.6468    1.0000 </r>
       <r>  -15.5118    1.0000 </r>
       <r>  -15.4869    1.0000 </r>
       <r>  -15.4541    1.0000 </r>
       <r>  -15.2665    1.0000 </r>
       <r>   -9.7977    1.0000 </r>
       <r>   -9.4715    1.0000 </r>
       <r>   -9.3591    1.0000 </r>
       <r>   -8.9979    1.0000 </r>
       <r>   -8.7845    1.0000 </r>
       <r>   -8.7112    1.0000 </r>
       <r>   -8.6762    1.0000 </r>
       <r>   -8.5793    1.0000 </r>
       <r>   -8.4637    1.0000 </r>
       <r>   -8.3566    1.0000 </r>
       <r>   -8.1807    1.0000 </r>
       <r>   -8.1611    1.0000 </r>
       <r>   -8.0904    1.0000 </r>
       <r>   -8.0690    1.0000 </r>
       <r>   -7.9759    1.0000 </r>
       <r>   -7.9171    1.0000 </r>
       <r>   -7.7045    1.0000 </r>
       <r>   -7.6952    1.0000 </r>
       <r>   -7.6448    1.0000 </r>
       <r>   -7.5211    1.0000 </r>
       <r>   -7.4695    1.0000 </r>
       <r>   -7.2906    1.0000 </r>
       <r>   -7.0933    1.0000 </r>
       <r>   -7.0478    1.0000 </r>
       <r>   -6.9857    1.0000 </r>
       <r>   -6.8462    1.0000 </r>
       <r>   -6.7548    1.0000 </r>
       <r>   -6.7509    1.0000 </r>
       <r>   -6.7029    1.0000 </r>
       <r>   -6.5652    1.0000 </r>
       <r>   -6.5543    1.0000 </r>
       <r>   -6.5542    1.0000 </r>
       <r>   -6.3626    1.0000 </r>
       <r>   -6.3570    1.0000 </r>
       <r>   -6.2811    1.0000 </r>
       <r>   -6.1683    1.0000 </r>
       <r>   -6.0743    1.0000 </r>
       <r>   -6.0522    1.0000 </r>
       <r>   -5.9789    1.0000 </r>
       <r>   -5.9205    1.0000 </r>
       <r>   -5.8799    1.0000 </r>
       <r>   -5.7179    1.0000 </r>
       <r>   -5.7039    1.0000 </r>
       <r>   -5.5294    1.0000 </r>
       <r>   -5.5152    1.0000 </r>
       <r>   -5.4700    1.0000 </r>
       <r>   -5.2086    1.0000 </r>
       <r>   -5.0700    1.0000 </r>
       <r>   -5.0635    1.0000 </r>
       <r>   -4.8962    1.0000 </r>
       <r>   -4.7719    1.0000 </r>
       <r>   -4.6805    1.0000 </r>
       <r>   -4.6502    1.0000 </r>
       <r>   -4.4822    1.0000 </r>
       <r>   -4.2811    1.0000 </r>
       <r>   -4.1686    1.0000 </r>
       <r>   -4.0559    1.0000 </r>
       <r>   -4.0358    1.0000 </r>
       <r>   -3.8915    1.0000 </r>
       <r>   -3.8070    1.0000 </r>
       <r>   -3.4386    0.9182 </r>
       <r>   -3.4371    0.9165 </r>
       <r>   -3.0083    0.0495 </r>
       <r>   -2.9432    0.0174 </r>
       <r>   -2.6610    0.0000 </r>
       <r>   -2.6001    0.0000 </r>
       <r>   -2.5599    0.0000 </r>
       <r>   -2.4853    0.0000 </r>
       <r>   -2.2059    0.0000 </r>
       <r>   -2.1647    0.0000 </r>
       <r>   -2.0423    0.0000 </r>
       <r>   -1.9232    0.0000 </r>
       <r>   -1.9137    0.0000 </r>
       <r>   -1.5741    0.0000 </r>
       <r>   -1.2201    0.0000 </r>
       <r>   -1.2193    0.0000 </r>
       <r>   -1.1965    0.0000 </r>
       <r>   -1.0173    0.0000 </r>
      </set>
      <set comment="kpoint 32">
       <r>  -17.5128    1.0000 </r>
       <r>  -17.2675    1.0000 </r>
       <r>  -16.9874    1.0000 </r>
       <r>  -16.6164    1.0000 </r>
       <r>  -16.5695    1.0000 </r>
       <r>  -16.2945    1.0000 </r>
       <r>  -16.2474    1.0000 </r>
       <r>  -16.2174    1.0000 </r>
       <r>  -16.1896    1.0000 </r>
       <r>  -16.1881    1.0000 </r>
       <r>  -15.9708    1.0000 </r>
       <r>  -15.7955    1.0000 </r>
       <r>  -15.6820    1.0000 </r>
       <r>  -15.6094    1.0000 </r>
       <r>  -15.5165    1.0000 </r>
       <r>  -15.4803    1.0000 </r>
       <r>  -15.4543    1.0000 </r>
       <r>  -15.2666    1.0000 </r>
       <r>   -9.7543    1.0000 </r>
       <r>   -9.5500    1.0000 </r>
       <r>   -9.4206    1.0000 </r>
       <r>   -8.9406    1.0000 </r>
       <r>   -8.7644    1.0000 </r>
       <r>   -8.6795    1.0000 </r>
       <r>   -8.6090    1.0000 </r>
       <r>   -8.4354    1.0000 </r>
       <r>   -8.3921    1.0000 </r>
       <r>   -8.3295    1.0000 </r>
       <r>   -8.3091    1.0000 </r>
       <r>   -8.2279    1.0000 </r>
       <r>   -8.2001    1.0000 </r>
       <r>   -8.1139    1.0000 </r>
       <r>   -8.0196    1.0000 </r>
       <r>   -7.9822    1.0000 </r>
       <r>   -7.6962    1.0000 </r>
       <r>   -7.6750    1.0000 </r>
       <r>   -7.5829    1.0000 </r>
       <r>   -7.5194    1.0000 </r>
       <r>   -7.4807    1.0000 </r>
       <r>   -7.1861    1.0000 </r>
       <r>   -7.1521    1.0000 </r>
       <r>   -7.0557    1.0000 </r>
       <r>   -6.9801    1.0000 </r>
       <r>   -6.8525    1.0000 </r>
       <r>   -6.8136    1.0000 </r>
       <r>   -6.7378    1.0000 </r>
       <r>   -6.6630    1.0000 </r>
       <r>   -6.5472    1.0000 </r>
       <r>   -6.5441    1.0000 </r>
       <r>   -6.5182    1.0000 </r>
       <r>   -6.4507    1.0000 </r>
       <r>   -6.3678    1.0000 </r>
       <r>   -6.2985    1.0000 </r>
       <r>   -6.2015    1.0000 </r>
       <r>   -6.0015    1.0000 </r>
       <r>   -5.9987    1.0000 </r>
       <r>   -5.9811    1.0000 </r>
       <r>   -5.9261    1.0000 </r>
       <r>   -5.7911    1.0000 </r>
       <r>   -5.7239    1.0000 </r>
       <r>   -5.6636    1.0000 </r>
       <r>   -5.6539    1.0000 </r>
       <r>   -5.5025    1.0000 </r>
       <r>   -5.4420    1.0000 </r>
       <r>   -5.2075    1.0000 </r>
       <r>   -5.0672    1.0000 </r>
       <r>   -4.9928    1.0000 </r>
       <r>   -4.8490    1.0000 </r>
       <r>   -4.8189    1.0000 </r>
       <r>   -4.7854    1.0000 </r>
       <r>   -4.7680    1.0000 </r>
       <r>   -4.4601    1.0000 </r>
       <r>   -4.2647    1.0000 </r>
       <r>   -4.1538    1.0000 </r>
       <r>   -4.0439    1.0000 </r>
       <r>   -4.0263    1.0000 </r>
       <r>   -3.9045    1.0000 </r>
       <r>   -3.7735    0.9999 </r>
       <r>   -3.4345    0.9136 </r>
       <r>   -3.4315    0.9103 </r>
       <r>   -3.0143    0.0540 </r>
       <r>   -2.9194    0.0113 </r>
       <r>   -2.6660    0.0000 </r>
       <r>   -2.5796    0.0000 </r>
       <r>   -2.5501    0.0000 </r>
       <r>   -2.5086    0.0000 </r>
       <r>   -2.2366    0.0000 </r>
       <r>   -2.1780    0.0000 </r>
       <r>   -2.0390    0.0000 </r>
       <r>   -1.9372    0.0000 </r>
       <r>   -1.9192    0.0000 </r>
       <r>   -1.5635    0.0000 </r>
       <r>   -1.2491    0.0000 </r>
       <r>   -1.2460    0.0000 </r>
       <r>   -1.2037    0.0000 </r>
       <r>   -0.9837    0.0000 </r>
      </set>
      <set comment="kpoint 33">
       <r>  -17.4907    1.0000 </r>
       <r>  -17.3326    1.0000 </r>
       <r>  -16.8909    1.0000 </r>
       <r>  -16.6225    1.0000 </r>
       <r>  -16.5712    1.0000 </r>
       <r>  -16.4530    1.0000 </r>
       <r>  -16.2167    1.0000 </r>
       <r>  -16.1890    1.0000 </r>
       <r>  -16.1836    1.0000 </r>
       <r>  -16.1782    1.0000 </r>
       <r>  -15.8945    1.0000 </r>
       <r>  -15.7942    1.0000 </r>
       <r>  -15.6835    1.0000 </r>
       <r>  -15.6468    1.0000 </r>
       <r>  -15.5118    1.0000 </r>
       <r>  -15.4869    1.0000 </r>
       <r>  -15.4540    1.0000 </r>
       <r>  -15.2665    1.0000 </r>
       <r>   -9.7976    1.0000 </r>
       <r>   -9.4716    1.0000 </r>
       <r>   -9.3592    1.0000 </r>
       <r>   -8.9981    1.0000 </r>
       <r>   -8.7846    1.0000 </r>
       <r>   -8.7112    1.0000 </r>
       <r>   -8.6763    1.0000 </r>
       <r>   -8.5793    1.0000 </r>
       <r>   -8.4637    1.0000 </r>
       <r>   -8.3566    1.0000 </r>
       <r>   -8.1807    1.0000 </r>
       <r>   -8.1612    1.0000 </r>
       <r>   -8.0904    1.0000 </r>
       <r>   -8.0690    1.0000 </r>
       <r>   -7.9759    1.0000 </r>
       <r>   -7.9171    1.0000 </r>
       <r>   -7.7045    1.0000 </r>
       <r>   -7.6952    1.0000 </r>
       <r>   -7.6448    1.0000 </r>
       <r>   -7.5211    1.0000 </r>
       <r>   -7.4695    1.0000 </r>
       <r>   -7.2907    1.0000 </r>
       <r>   -7.0933    1.0000 </r>
       <r>   -7.0477    1.0000 </r>
       <r>   -6.9856    1.0000 </r>
       <r>   -6.8462    1.0000 </r>
       <r>   -6.7547    1.0000 </r>
       <r>   -6.7509    1.0000 </r>
       <r>   -6.7028    1.0000 </r>
       <r>   -6.5653    1.0000 </r>
       <r>   -6.5543    1.0000 </r>
       <r>   -6.5540    1.0000 </r>
       <r>   -6.3629    1.0000 </r>
       <r>   -6.3571    1.0000 </r>
       <r>   -6.2810    1.0000 </r>
       <r>   -6.1682    1.0000 </r>
       <r>   -6.0740    1.0000 </r>
       <r>   -6.0524    1.0000 </r>
       <r>   -5.9788    1.0000 </r>
       <r>   -5.9205    1.0000 </r>
       <r>   -5.8798    1.0000 </r>
       <r>   -5.7178    1.0000 </r>
       <r>   -5.7040    1.0000 </r>
       <r>   -5.5296    1.0000 </r>
       <r>   -5.5151    1.0000 </r>
       <r>   -5.4699    1.0000 </r>
       <r>   -5.2088    1.0000 </r>
       <r>   -5.0698    1.0000 </r>
       <r>   -5.0635    1.0000 </r>
       <r>   -4.8962    1.0000 </r>
       <r>   -4.7720    1.0000 </r>
       <r>   -4.6809    1.0000 </r>
       <r>   -4.6507    1.0000 </r>
       <r>   -4.4821    1.0000 </r>
       <r>   -4.2811    1.0000 </r>
       <r>   -4.1689    1.0000 </r>
       <r>   -4.0557    1.0000 </r>
       <r>   -4.0357    1.0000 </r>
       <r>   -3.8915    1.0000 </r>
       <r>   -3.8070    1.0000 </r>
       <r>   -3.4386    0.9181 </r>
       <r>   -3.4370    0.9165 </r>
       <r>   -3.0083    0.0495 </r>
       <r>   -2.9432    0.0174 </r>
       <r>   -2.6610    0.0000 </r>
       <r>   -2.6002    0.0000 </r>
       <r>   -2.5599    0.0000 </r>
       <r>   -2.4853    0.0000 </r>
       <r>   -2.2059    0.0000 </r>
       <r>   -2.1647    0.0000 </r>
       <r>   -2.0423    0.0000 </r>
       <r>   -1.9233    0.0000 </r>
       <r>   -1.9138    0.0000 </r>
       <r>   -1.5741    0.0000 </r>
       <r>   -1.2200    0.0000 </r>
       <r>   -1.2192    0.0000 </r>
       <r>   -1.1964    0.0000 </r>
       <r>   -1.0173    0.0000 </r>
      </set>
      <set comment="kpoint 34">
       <r>  -17.4268    1.0000 </r>
       <r>  -17.4267    1.0000 </r>
       <r>  -16.7146    1.0000 </r>
       <r>  -16.7145    1.0000 </r>
       <r>  -16.5651    1.0000 </r>
       <r>  -16.5650    1.0000 </r>
       <r>  -16.2160    1.0000 </r>
       <r>  -16.1899    1.0000 </r>
       <r>  -16.1721    1.0000 </r>
       <r>  -16.1719    1.0000 </r>
       <r>  -15.7929    1.0000 </r>
       <r>  -15.7532    1.0000 </r>
       <r>  -15.7531    1.0000 </r>
       <r>  -15.6850    1.0000 </r>
       <r>  -15.5001    1.0000 </r>
       <r>  -15.5000    1.0000 </r>
       <r>  -15.4537    1.0000 </r>
       <r>  -15.2664    1.0000 </r>
       <r>   -9.8273    1.0000 </r>
       <r>   -9.3999    1.0000 </r>
       <r>   -9.1913    1.0000 </r>
       <r>   -9.1913    1.0000 </r>
       <r>   -8.7676    1.0000 </r>
       <r>   -8.7676    1.0000 </r>
       <r>   -8.7490    1.0000 </r>
       <r>   -8.5577    1.0000 </r>
       <r>   -8.5576    1.0000 </r>
       <r>   -8.3743    1.0000 </r>
       <r>   -8.1577    1.0000 </r>
       <r>   -8.0813    1.0000 </r>
       <r>   -8.0789    1.0000 </r>
       <r>   -8.0789    1.0000 </r>
       <r>   -7.7873    1.0000 </r>
       <r>   -7.7870    1.0000 </r>
       <r>   -7.7256    1.0000 </r>
       <r>   -7.7093    1.0000 </r>
       <r>   -7.7092    1.0000 </r>
       <r>   -7.5205    1.0000 </r>
       <r>   -7.5205    1.0000 </r>
       <r>   -7.4294    1.0000 </r>
       <r>   -7.0390    1.0000 </r>
       <r>   -7.0103    1.0000 </r>
       <r>   -7.0102    1.0000 </r>
       <r>   -6.8529    1.0000 </r>
       <r>   -6.7463    1.0000 </r>
       <r>   -6.7463    1.0000 </r>
       <r>   -6.6415    1.0000 </r>
       <r>   -6.5701    1.0000 </r>
       <r>   -6.5700    1.0000 </r>
       <r>   -6.5634    1.0000 </r>
       <r>   -6.3609    1.0000 </r>
       <r>   -6.3106    1.0000 </r>
       <r>   -6.3105    1.0000 </r>
       <r>   -6.2613    1.0000 </r>
       <r>   -6.0800    1.0000 </r>
       <r>   -6.0800    1.0000 </r>
       <r>   -5.9815    1.0000 </r>
       <r>   -5.8629    1.0000 </r>
       <r>   -5.8629    1.0000 </r>
       <r>   -5.7285    1.0000 </r>
       <r>   -5.7284    1.0000 </r>
       <r>   -5.5622    1.0000 </r>
       <r>   -5.5622    1.0000 </r>
       <r>   -5.4491    1.0000 </r>
       <r>   -5.2061    1.0000 </r>
       <r>   -5.0632    1.0000 </r>
       <r>   -5.0006    1.0000 </r>
       <r>   -5.0006    1.0000 </r>
       <r>   -4.7530    1.0000 </r>
       <r>   -4.5586    1.0000 </r>
       <r>   -4.5584    1.0000 </r>
       <r>   -4.5082    1.0000 </r>
       <r>   -4.2550    1.0000 </r>
       <r>   -4.2549    1.0000 </r>
       <r>   -4.0543    1.0000 </r>
       <r>   -4.0540    1.0000 </r>
       <r>   -3.8589    1.0000 </r>
       <r>   -3.8588    1.0000 </r>
       <r>   -3.4429    0.9226 </r>
       <r>   -3.4423    0.9220 </r>
       <r>   -2.9845    0.0345 </r>
       <r>   -2.9844    0.0345 </r>
       <r>   -2.6378    0.0000 </r>
       <r>   -2.6377    0.0000 </r>
       <r>   -2.5654    0.0000 </r>
       <r>   -2.4660    0.0000 </r>
       <r>   -2.1626    0.0000 </r>
       <r>   -2.1624    0.0000 </r>
       <r>   -2.0458    0.0000 </r>
       <r>   -1.9110    0.0000 </r>
       <r>   -1.9109    0.0000 </r>
       <r>   -1.5843    0.0000 </r>
       <r>   -1.1826    0.0000 </r>
       <r>   -1.1741    0.0000 </r>
       <r>   -1.1739    0.0000 </r>
       <r>   -1.0849    0.0000 </r>
      </set>
     </set>
    </set>
   </array>
  </eigenvalues>
  <separator name="orbital magnetization" >
   <v name="MAGDIPOLOUT">      0.00000000      0.00000000      0.00000000</v>
  </separator>
 </calculation>
 <structure name="finalpos" >
  <crystal>
   <varray name="basis" >
    <v>       8.30852867       4.82875630       0.00000000 </v>
    <v>      -8.28130538       4.78162716       0.00000000 </v>
    <v>       0.00000000       0.00000000      30.00000000 </v>
   </varray>
   <i name="volume">   2391.50075553 </i>
   <varray name="rec_basis" >
    <v>       0.05998276       0.10388421       0.00000000 </v>
    <v>      -0.06057397       0.10422571       0.00000000 </v>
    <v>       0.00000000       0.00000000       0.03333333 </v>
   </varray>
  </crystal>
  <varray name="positions" >
   <v>       0.03526366       0.01761097      -0.00136743 </v>
   <v>       1.03525991       0.35093363      -0.00136638 </v>
   <v>       0.03525405       0.68427138      -0.00136716 </v>
   <v>       0.34285435       0.00474479      -0.00080258 </v>
   <v>       0.34285002       0.33805807      -0.00080291 </v>
   <v>       0.34285564       0.67137360      -0.00080238 </v>
   <v>       0.62878065      -0.01898023       0.00208325 </v>
   <v>       0.62878686       0.31436013       0.00208189 </v>
   <v>       0.62878611       0.64769409       0.00208217 </v>
   <v>       0.11018499       0.22172235       0.94701964 </v>
   <v>       0.22177832       0.11086384       0.05244502 </v>
   <v>       0.11018498       0.55504968       0.94701952 </v>
   <v>       0.22177699       0.44419260       0.05244572 </v>
   <v>       0.11018723       0.88839447       0.94701850 </v>
   <v>       0.22178541       0.77753271       0.05244357 </v>
   <v>       0.44031277       0.22011845       0.94396582 </v>
   <v>       0.55075318       0.10868148       0.05735963 </v>
   <v>       0.44031271       0.55344830       0.94396575 </v>
   <v>       0.55075870       0.44201604       0.05735990 </v>
   <v>       0.44030563       0.88677877       0.94396958 </v>
   <v>       0.55075087       0.77534236       0.05736070 </v>
   <v>       0.77930533       0.22294765       0.95624318 </v>
   <v>       0.89016987       0.11171523       0.04305374 </v>
   <v>       0.77930713       0.55628546       0.95624189 </v>
   <v>       0.89017079       0.44505097       0.04305349 </v>
   <v>       0.77930680       0.88961859       0.95624240 </v>
   <v>       0.89017150       0.77838909       0.04305337 </v>
  </varray>
 </structure>
</modeling>
