   27   27  100    1
  0.9710400E+02  0.1002848E-08  0.1002848E-08  0.3000000E-08  0.5000000E-15
  1.000000000000000E-004
  CAR 
 unknown system                          
    159     34     96
 
  0.0000000E+00  0.0000000E+00  0.0000000E+00  0.1562500E-01
    1      -17.828083   1.000000
    2      -16.768404   1.000000
    3      -16.575738   1.000000
    4      -16.575733   1.000000
    5      -16.498332   1.000000
    6      -16.410536   1.000000
    7      -16.410499   1.000000
    8      -16.404896   1.000000
    9      -16.205077   1.000000
   10      -16.205070   1.000000
   11      -16.050964   1.000000
   12      -15.907556   1.000000
   13      -15.907465   1.000000
   14      -15.618286   1.000000
   15      -15.543483   1.000000
   16      -15.543448   1.000000
   17      -15.249369   1.000000
   18      -15.249330   1.000000
   19       -9.367053   1.000000
   20       -9.141700   1.000000
   21       -8.901352   1.000000
   22       -8.901305   1.000000
   23       -8.757337   1.000000
   24       -8.757297   1.000000
   25       -8.579425   1.000000
   26       -8.579330   1.000000
   27       -8.557622   1.000000
   28       -8.428563   1.000000
   29       -8.428513   1.000000
   30       -8.265070   1.000000
   31       -8.245870   1.000000
   32       -8.245641   1.000000
   33       -8.098353   1.000000
   34       -8.098282   1.000000
   35       -7.721272   1.000000
   36       -7.721203   1.000000
   37       -7.717610   1.000000
   38       -7.519197   1.000000
   39       -7.519088   1.000000
   40       -7.403557   1.000000
   41       -7.232568   1.000000
   42       -7.232556   1.000000
   43       -7.042748   1.000000
   44       -6.894548   1.000000
   45       -6.894411   1.000000
   46       -6.881501   1.000000
   47       -6.711709   1.000000
   48       -6.678149   1.000000
   49       -6.678039   1.000000
   50       -6.521576   1.000000
   51       -6.521563   1.000000
   52       -6.194097   1.000000
   53       -6.186459   1.000000
   54       -6.186418   1.000000
   55       -6.144804   1.000000
   56       -6.030750   1.000000
   57       -5.951254   1.000000
   58       -5.951189   1.000000
   59       -5.820648   1.000000
   60       -5.820585   1.000000
   61       -5.661769   1.000000
   62       -5.318686   1.000000
   63       -5.318638   1.000000
   64       -5.007420   1.000000
   65       -5.007294   1.000000
   66       -4.962364   1.000000
   67       -4.743237   1.000000
   68       -4.743234   1.000000
   69       -4.691925   1.000000
   70       -4.691178   1.000000
   71       -4.655455   1.000000
   72       -4.655258   1.000000
   73       -4.589336   1.000000
   74       -4.391683   1.000000
   75       -4.391537   1.000000
   76       -4.095815   1.000000
   77       -3.789865   0.999947
   78       -3.715828   0.999601
   79       -3.430038   0.908621
   80       -3.157410   0.275767
   81       -3.148029   0.254051
   82       -2.833703   0.001961
   83       -2.833560   0.001954
   84       -2.477602   0.000000
   85       -2.477390   0.000000
   86       -2.407023   0.000000
   87       -2.406132   0.000000
   88       -2.282315   0.000000
   89       -2.216668   0.000000
   90       -2.037822   0.000000
   91       -2.037678   0.000000
   92       -1.530822   0.000000
   93       -1.530653   0.000000
   94       -1.073532   0.000000
   95       -1.040919   0.000000
   96       -1.040858   0.000000
 
  0.1250000E+00  0.2775558E-16  0.0000000E+00  0.3125000E-01
    1      -17.804473   1.000000
    2      -16.806030   1.000000
    3      -16.618088   1.000000
    4      -16.608491   1.000000
    5      -16.608383   1.000000
    6      -16.382377   1.000000
    7      -16.382272   1.000000
    8      -16.332462   1.000000
    9      -16.191664   1.000000
   10      -16.191615   1.000000
   11      -15.983443   1.000000
   12      -15.895823   1.000000
   13      -15.895715   1.000000
   14      -15.613899   1.000000
   15      -15.561064   1.000000
   16      -15.560990   1.000000
   17      -15.252454   1.000000
   18      -15.252405   1.000000
   19       -9.414597   1.000000
   20       -9.160031   1.000000
   21       -8.994146   1.000000
   22       -8.994040   1.000000
   23       -8.806484   1.000000
   24       -8.806392   1.000000
   25       -8.677003   1.000000
   26       -8.536667   1.000000
   27       -8.536602   1.000000
   28       -8.408402   1.000000
   29       -8.408388   1.000000
   30       -8.204157   1.000000
   31       -8.203995   1.000000
   32       -8.054018   1.000000
   33       -8.017428   1.000000
   34       -8.017267   1.000000
   35       -7.691848   1.000000
   36       -7.673518   1.000000
   37       -7.673367   1.000000
   38       -7.534736   1.000000
   39       -7.534595   1.000000
   40       -7.479738   1.000000
   41       -7.215685   1.000000
   42       -7.215532   1.000000
   43       -7.046009   1.000000
   44       -6.992281   1.000000
   45       -6.992118   1.000000
   46       -6.888331   1.000000
   47       -6.703350   1.000000
   48       -6.612415   1.000000
   49       -6.612199   1.000000
   50       -6.480790   1.000000
   51       -6.480743   1.000000
   52       -6.319711   1.000000
   53       -6.211668   1.000000
   54       -6.211440   1.000000
   55       -6.035597   1.000000
   56       -6.035495   1.000000
   57       -6.021956   1.000000
   58       -5.966892   1.000000
   59       -5.737490   1.000000
   60       -5.737450   1.000000
   61       -5.656250   1.000000
   62       -5.421038   1.000000
   63       -5.420968   1.000000
   64       -5.099389   1.000000
   65       -5.099000   1.000000
   66       -4.975463   1.000000
   67       -4.750611   1.000000
   68       -4.750270   1.000000
   69       -4.728330   1.000000
   70       -4.598905   1.000000
   71       -4.564482   1.000000
   72       -4.564320   1.000000
   73       -4.553170   1.000000
   74       -4.369122   1.000000
   75       -4.368912   1.000000
   76       -4.124838   1.000000
   77       -3.855528   0.999993
   78       -3.782360   0.999934
   79       -3.467077   0.944556
   80       -3.123185   0.201164
   81       -3.114674   0.184687
   82       -2.799318   0.000881
   83       -2.799197   0.000879
   84       -2.481089   0.000000
   85       -2.480759   0.000000
   86       -2.388251   0.000000
   87       -2.387464   0.000000
   88       -2.232177   0.000000
   89       -2.197762   0.000000
   90       -2.039839   0.000000
   91       -2.039699   0.000000
   92       -1.525760   0.000000
   93       -1.525577   0.000000
   94       -1.098298   0.000000
   95       -1.045787   0.000000
   96       -1.045714   0.000000
 
  0.2500000E+00  0.5551115E-16  0.0000000E+00  0.3125000E-01
    1      -17.736211   1.000000
    2      -16.966979   1.000000
    3      -16.672899   1.000000
    4      -16.661323   1.000000
    5      -16.661222   1.000000
    6      -16.350360   1.000000
    7      -16.350311   1.000000
    8      -16.311924   1.000000
    9      -16.145351   1.000000
   10      -16.145235   1.000000
   11      -15.865095   1.000000
   12      -15.864974   1.000000
   13      -15.841879   1.000000
   14      -15.608690   1.000000
   15      -15.608561   1.000000
   16      -15.602619   1.000000
   17      -15.261094   1.000000
   18      -15.261031   1.000000
   19       -9.588581   1.000000
   20       -9.146608   1.000000
   21       -9.146522   1.000000
   22       -9.138320   1.000000
   23       -8.894999   1.000000
   24       -8.894930   1.000000
   25       -8.678222   1.000000
   26       -8.465586   1.000000
   27       -8.465560   1.000000
   28       -8.350510   1.000000
   29       -8.350388   1.000000
   30       -8.190930   1.000000
   31       -8.190800   1.000000
   32       -8.005121   1.000000
   33       -7.815406   1.000000
   34       -7.815244   1.000000
   35       -7.647353   1.000000
   36       -7.647203   1.000000
   37       -7.643659   1.000000
   38       -7.526748   1.000000
   39       -7.456136   1.000000
   40       -7.456052   1.000000
   41       -7.232355   1.000000
   42       -7.232256   1.000000
   43       -7.057096   1.000000
   44       -7.056970   1.000000
   45       -6.990570   1.000000
   46       -6.903941   1.000000
   47       -6.683086   1.000000
   48       -6.606152   1.000000
   49       -6.605977   1.000000
   50       -6.382799   1.000000
   51       -6.382730   1.000000
   52       -6.356350   1.000000
   53       -6.240672   1.000000
   54       -6.240456   1.000000
   55       -6.099160   1.000000
   56       -6.099056   1.000000
   57       -6.002977   1.000000
   58       -5.874130   1.000000
   59       -5.716288   1.000000
   60       -5.716230   1.000000
   61       -5.597331   1.000000
   62       -5.597142   1.000000
   63       -5.536211   1.000000
   64       -5.322253   1.000000
   65       -5.321880   1.000000
   66       -4.982873   1.000000
   67       -4.774523   1.000000
   68       -4.685657   1.000000
   69       -4.685336   1.000000
   70       -4.503387   1.000000
   71       -4.483711   1.000000
   72       -4.483579   1.000000
   73       -4.481435   1.000000
   74       -4.299442   1.000000
   75       -4.299267   1.000000
   76       -4.268154   1.000000
   77       -3.939815   1.000000
   78       -3.925743   0.999999
   79       -3.487454   0.958921
   80       -3.072362   0.115685
   81       -3.057216   0.096126
   82       -2.733953   0.000165
   83       -2.733883   0.000165
   84       -2.487465   0.000000
   85       -2.486968   0.000000
   86       -2.329734   0.000000
   87       -2.329093   0.000000
   88       -2.136921   0.000000
   89       -2.111599   0.000000
   90       -2.033484   0.000000
   91       -2.033347   0.000000
   92       -1.524735   0.000000
   93       -1.524588   0.000000
   94       -1.214393   0.000000
   95       -1.056271   0.000000
   96       -1.056230   0.000000
 
  0.3750000E+00  0.0000000E+00  0.0000000E+00  0.3125000E-01
    1      -17.635961   1.000000
    2      -17.159076   1.000000
    3      -16.699425   1.000000
    4      -16.699367   1.000000
    5      -16.675133   1.000000
    6      -16.340243   1.000000
    7      -16.340230   1.000000
    8      -16.319199   1.000000
    9      -16.084470   1.000000
   10      -16.084354   1.000000
   11      -15.824509   1.000000
   12      -15.824392   1.000000
   13      -15.728432   1.000000
   14      -15.671863   1.000000
   15      -15.671718   1.000000
   16      -15.588167   1.000000
   17      -15.271416   1.000000
   18      -15.271365   1.000000
   19       -9.763420   1.000000
   20       -9.257075   1.000000
   21       -9.256995   1.000000
   22       -9.071978   1.000000
   23       -8.964320   1.000000
   24       -8.964242   1.000000
   25       -8.580696   1.000000
   26       -8.406317   1.000000
   27       -8.406293   1.000000
   28       -8.271544   1.000000
   29       -8.271367   1.000000
   30       -8.187636   1.000000
   31       -8.187516   1.000000
   32       -8.133078   1.000000
   33       -7.831534   1.000000
   34       -7.831429   1.000000
   35       -7.778145   1.000000
   36       -7.513838   1.000000
   37       -7.513747   1.000000
   38       -7.494067   1.000000
   39       -7.346343   1.000000
   40       -7.346155   1.000000
   41       -7.235932   1.000000
   42       -7.235827   1.000000
   43       -7.028843   1.000000
   44       -7.028709   1.000000
   45       -6.918324   1.000000
   46       -6.738937   1.000000
   47       -6.662147   1.000000
   48       -6.599541   1.000000
   49       -6.599446   1.000000
   50       -6.385287   1.000000
   51       -6.375679   1.000000
   52       -6.375550   1.000000
   53       -6.269359   1.000000
   54       -6.269186   1.000000
   55       -6.075888   1.000000
   56       -6.075786   1.000000
   57       -5.987443   1.000000
   58       -5.833774   1.000000
   59       -5.833703   1.000000
   60       -5.739338   1.000000
   61       -5.717905   1.000000
   62       -5.717846   1.000000
   63       -5.494914   1.000000
   64       -5.494686   1.000000
   65       -5.399423   1.000000
   66       -4.995638   1.000000
   67       -4.794570   1.000000
   68       -4.766129   1.000000
   69       -4.638426   1.000000
   70       -4.638245   1.000000
   71       -4.467919   1.000000
   72       -4.432638   1.000000
   73       -4.432539   1.000000
   74       -4.226002   1.000000
   75       -4.225893   1.000000
   76       -4.219811   1.000000
   77       -4.060931   1.000000
   78       -3.941609   1.000000
   79       -3.465754   0.943501
   80       -3.052519   0.090586
   81       -3.002930   0.045725
   82       -2.690690   0.000049
   83       -2.690657   0.000049
   84       -2.498100   0.000000
   85       -2.497530   0.000000
   86       -2.236457   0.000000
   87       -2.235882   0.000000
   88       -2.035126   0.000000
   89       -2.018118   0.000000
   90       -2.017981   0.000000
   91       -1.987473   0.000000
   92       -1.542729   0.000000
   93       -1.542601   0.000000
   94       -1.422292   0.000000
   95       -1.080798   0.000000
   96       -1.080688   0.000000
 
  0.5000000E+00  0.1110223E-15  0.0000000E+00  0.1562500E-01
    1      -17.567051   1.000000
    2      -17.261651   1.000000
    3      -16.712890   1.000000
    4      -16.712874   1.000000
    5      -16.673106   1.000000
    6      -16.338890   1.000000
    7      -16.338883   1.000000
    8      -16.324461   1.000000
    9      -16.055658   1.000000
   10      -16.055578   1.000000
   11      -15.794756   1.000000
   12      -15.794743   1.000000
   13      -15.713389   1.000000
   14      -15.713381   1.000000
   15      -15.689125   1.000000
   16      -15.579401   1.000000
   17      -15.276196   1.000000
   18      -15.276165   1.000000
   19       -9.830778   1.000000
   20       -9.296086   1.000000
   21       -9.296020   1.000000
   22       -9.034605   1.000000
   23       -8.989715   1.000000
   24       -8.989650   1.000000
   25       -8.518020   1.000000
   26       -8.383644   1.000000
   27       -8.383616   1.000000
   28       -8.222892   1.000000
   29       -8.222658   1.000000
   30       -8.193582   1.000000
   31       -8.186609   1.000000
   32       -8.186537   1.000000
   33       -7.881575   1.000000
   34       -7.881565   1.000000
   35       -7.881388   1.000000
   36       -7.482401   1.000000
   37       -7.482265   1.000000
   38       -7.471740   1.000000
   39       -7.302101   1.000000
   40       -7.302044   1.000000
   41       -7.155400   1.000000
   42       -7.155298   1.000000
   43       -7.036725   1.000000
   44       -7.036684   1.000000
   45       -6.924067   1.000000
   46       -6.653232   1.000000
   47       -6.641342   1.000000
   48       -6.543060   1.000000
   49       -6.543029   1.000000
   50       -6.437749   1.000000
   51       -6.437714   1.000000
   52       -6.363391   1.000000
   53       -6.241342   1.000000
   54       -6.241305   1.000000
   55       -6.140591   1.000000
   56       -6.140543   1.000000
   57       -5.982178   1.000000
   58       -5.850635   1.000000
   59       -5.850572   1.000000
   60       -5.768769   1.000000
   61       -5.768681   1.000000
   62       -5.594852   1.000000
   63       -5.560624   1.000000
   64       -5.560447   1.000000
   65       -5.318531   1.000000
   66       -5.146075   1.000000
   67       -4.904722   1.000000
   68       -4.796936   1.000000
   69       -4.625808   1.000000
   70       -4.625668   1.000000
   71       -4.453951   1.000000
   72       -4.409551   1.000000
   73       -4.409471   1.000000
   74       -4.197256   1.000000
   75       -4.197221   1.000000
   76       -4.177838   1.000000
   77       -4.118150   1.000000
   78       -3.932174   0.999999
   79       -3.446878   0.926664
   80       -3.048739   0.086302
   81       -2.982397   0.033402
   82       -2.677291   0.000033
   83       -2.677260   0.000033
   84       -2.503235   0.000000
   85       -2.502655   0.000000
   86       -2.185521   0.000000
   87       -2.184946   0.000000
   88       -2.010822   0.000000
   89       -2.010691   0.000000
   90       -1.960362   0.000000
   91       -1.933408   0.000000
   92       -1.559372   0.000000
   93       -1.559252   0.000000
   94       -1.547544   0.000000
   95       -1.103255   0.000000
   96       -1.103135   0.000000
 
  0.0000000E+00  0.1250000E+00  0.0000000E+00  0.3125000E-01
    1      -17.801823   1.000000
    2      -16.768456   1.000000
    3      -16.764192   1.000000
    4      -16.536438   1.000000
    5      -16.508628   1.000000
    6      -16.425169   1.000000
    7      -16.358669   1.000000
    8      -16.350878   1.000000
    9      -16.326967   1.000000
   10      -16.027817   1.000000
   11      -16.027685   1.000000
   12      -15.977571   1.000000
   13      -15.829777   1.000000
   14      -15.610657   1.000000
   15      -15.560023   1.000000
   16      -15.540664   1.000000
   17      -15.295011   1.000000
   18      -15.229721   1.000000
   19       -9.348143   1.000000
   20       -9.207315   1.000000
   21       -9.122650   1.000000
   22       -8.978913   1.000000
   23       -8.813113   1.000000
   24       -8.658247   1.000000
   25       -8.601255   1.000000
   26       -8.589894   1.000000
   27       -8.514863   1.000000
   28       -8.505358   1.000000
   29       -8.417966   1.000000
   30       -8.287847   1.000000
   31       -8.173585   1.000000
   32       -8.075615   1.000000
   33       -7.972731   1.000000
   34       -7.865664   1.000000
   35       -7.860544   1.000000
   36       -7.729923   1.000000
   37       -7.689135   1.000000
   38       -7.495645   1.000000
   39       -7.438373   1.000000
   40       -7.414064   1.000000
   41       -7.300742   1.000000
   42       -7.210127   1.000000
   43       -7.100303   1.000000
   44       -6.938670   1.000000
   45       -6.874401   1.000000
   46       -6.872641   1.000000
   47       -6.793070   1.000000
   48       -6.747347   1.000000
   49       -6.600713   1.000000
   50       -6.510556   1.000000
   51       -6.479588   1.000000
   52       -6.239311   1.000000
   53       -6.215840   1.000000
   54       -6.165298   1.000000
   55       -6.078140   1.000000
   56       -6.066009   1.000000
   57       -5.987920   1.000000
   58       -5.882404   1.000000
   59       -5.859543   1.000000
   60       -5.643741   1.000000
   61       -5.636278   1.000000
   62       -5.344340   1.000000
   63       -5.334973   1.000000
   64       -5.188793   1.000000
   65       -5.082762   1.000000
   66       -4.973315   1.000000
   67       -4.948344   1.000000
   68       -4.883375   1.000000
   69       -4.705951   1.000000
   70       -4.642665   1.000000
   71       -4.565868   1.000000
   72       -4.463142   1.000000
   73       -4.417848   1.000000
   74       -4.395861   1.000000
   75       -4.348176   1.000000
   76       -4.045521   1.000000
   77       -3.855306   0.999993
   78       -3.753302   0.999852
   79       -3.428566   0.906899
   80       -3.384533   0.843882
   81       -2.925162   0.012620
   82       -2.865633   0.003923
   83       -2.765214   0.000378
   84       -2.709364   0.000084
   85       -2.465752   0.000000
   86       -2.465646   0.000000
   87       -2.284936   0.000000
   88       -2.170769   0.000000
   89       -2.167678   0.000000
   90       -2.069353   0.000000
   91       -1.977962   0.000000
   92       -1.709665   0.000000
   93       -1.370879   0.000000
   94       -1.068948   0.000000
   95       -1.014300   0.000000
   96       -1.005802   0.000000
 
  0.1250000E+00  0.1250000E+00  0.0000000E+00  0.3125000E-01
    1      -17.755357   1.000000
    2      -16.857652   1.000000
    3      -16.836795   1.000000
    4      -16.650846   1.000000
    5      -16.452280   1.000000
    6      -16.431826   1.000000
    7      -16.322164   1.000000
    8      -16.305683   1.000000
    9      -16.304198   1.000000
   10      -16.034123   1.000000
   11      -15.961758   1.000000
   12      -15.908103   1.000000
   13      -15.798248   1.000000
   14      -15.606229   1.000000
   15      -15.602515   1.000000
   16      -15.558008   1.000000
   17      -15.305780   1.000000
   18      -15.230259   1.000000
   19       -9.462602   1.000000
   20       -9.335236   1.000000
   21       -9.133210   1.000000
   22       -9.050368   1.000000
   23       -8.905354   1.000000
   24       -8.686144   1.000000
   25       -8.637833   1.000000
   26       -8.555584   1.000000
   27       -8.486781   1.000000
   28       -8.429535   1.000000
   29       -8.376589   1.000000
   30       -8.226944   1.000000
   31       -8.127784   1.000000
   32       -7.976234   1.000000
   33       -7.934665   1.000000
   34       -7.855556   1.000000
   35       -7.674528   1.000000
   36       -7.670413   1.000000
   37       -7.662286   1.000000
   38       -7.536694   1.000000
   39       -7.456748   1.000000
   40       -7.427944   1.000000
   41       -7.217181   1.000000
   42       -7.200727   1.000000
   43       -7.123682   1.000000
   44       -7.005588   1.000000
   45       -6.973464   1.000000
   46       -6.897693   1.000000
   47       -6.726133   1.000000
   48       -6.723876   1.000000
   49       -6.552653   1.000000
   50       -6.432305   1.000000
   51       -6.393953   1.000000
   52       -6.298072   1.000000
   53       -6.264304   1.000000
   54       -6.243245   1.000000
   55       -6.053086   1.000000
   56       -6.044277   1.000000
   57       -6.025924   1.000000
   58       -5.869352   1.000000
   59       -5.820899   1.000000
   60       -5.597774   1.000000
   61       -5.566398   1.000000
   62       -5.534684   1.000000
   63       -5.499391   1.000000
   64       -5.249559   1.000000
   65       -5.177825   1.000000
   66       -5.088907   1.000000
   67       -4.888303   1.000000
   68       -4.860716   1.000000
   69       -4.639532   1.000000
   70       -4.546328   1.000000
   71       -4.546019   1.000000
   72       -4.393623   1.000000
   73       -4.379356   1.000000
   74       -4.359015   1.000000
   75       -4.280421   1.000000
   76       -4.143816   1.000000
   77       -4.005318   1.000000
   78       -3.829613   0.999984
   79       -3.453146   0.932635
   80       -3.288144   0.628910
   81       -2.906297   0.008868
   82       -2.811736   0.001184
   83       -2.714922   0.000098
   84       -2.702971   0.000070
   85       -2.449733   0.000000
   86       -2.441265   0.000000
   87       -2.193950   0.000000
   88       -2.154650   0.000000
   89       -2.135652   0.000000
   90       -2.069855   0.000000
   91       -1.974156   0.000000
   92       -1.696059   0.000000
   93       -1.366152   0.000000
   94       -1.138185   0.000000
   95       -1.050323   0.000000
   96       -0.997814   0.000000
 
  0.2500000E+00  0.1250000E+00  0.0000000E+00  0.3125000E-01
    1      -17.668508   1.000000
    2      -17.049224   1.000000
    3      -16.898720   1.000000
    4      -16.668980   1.000000
    5      -16.479100   1.000000
    6      -16.406616   1.000000
    7      -16.305293   1.000000
    8      -16.286259   1.000000
    9      -16.216668   1.000000
   10      -16.032903   1.000000
   11      -15.936238   1.000000
   12      -15.770707   1.000000
   13      -15.760617   1.000000
   14      -15.690399   1.000000
   15      -15.589526   1.000000
   16      -15.581298   1.000000
   17      -15.321530   1.000000
   18      -15.232660   1.000000
   19       -9.658461   1.000000
   20       -9.453883   1.000000
   21       -9.170022   1.000000
   22       -9.080818   1.000000
   23       -8.982170   1.000000
   24       -8.682689   1.000000
   25       -8.619887   1.000000
   26       -8.465147   1.000000
   27       -8.386217   1.000000
   28       -8.352288   1.000000
   29       -8.332943   1.000000
   30       -8.184575   1.000000
   31       -8.183750   1.000000
   32       -8.065852   1.000000
   33       -7.932420   1.000000
   34       -7.823381   1.000000
   35       -7.711032   1.000000
   36       -7.617684   1.000000
   37       -7.517561   1.000000
   38       -7.491908   1.000000
   39       -7.428122   1.000000
   40       -7.379443   1.000000
   41       -7.250794   1.000000
   42       -7.091466   1.000000
   43       -7.067048   1.000000
   44       -7.022528   1.000000
   45       -6.929211   1.000000
   46       -6.856799   1.000000
   47       -6.724001   1.000000
   48       -6.650543   1.000000
   49       -6.529904   1.000000
   50       -6.378669   1.000000
   51       -6.357226   1.000000
   52       -6.346310   1.000000
   53       -6.325845   1.000000
   54       -6.177125   1.000000
   55       -6.133658   1.000000
   56       -6.024480   1.000000
   57       -6.007406   1.000000
   58       -5.873178   1.000000
   59       -5.783780   1.000000
   60       -5.746293   1.000000
   61       -5.652274   1.000000
   62       -5.582243   1.000000
   63       -5.480243   1.000000
   64       -5.458337   1.000000
   65       -5.281611   1.000000
   66       -5.150289   1.000000
   67       -4.922346   1.000000
   68       -4.783328   1.000000
   69       -4.586085   1.000000
   70       -4.557552   1.000000
   71       -4.495481   1.000000
   72       -4.411648   1.000000
   73       -4.342343   1.000000
   74       -4.321404   1.000000
   75       -4.223540   1.000000
   76       -4.180183   1.000000
   77       -4.124878   1.000000
   78       -3.865816   0.999995
   79       -3.470113   0.946918
   80       -3.166927   0.298691
   81       -2.903305   0.008373
   82       -2.756625   0.000302
   83       -2.694411   0.000055
   84       -2.666939   0.000024
   85       -2.434287   0.000000
   86       -2.370919   0.000000
   87       -2.110071   0.000000
   88       -2.091909   0.000000
   89       -2.057954   0.000000
   90       -2.041312   0.000000
   91       -1.959426   0.000000
   92       -1.711478   0.000000
   93       -1.367574   0.000000
   94       -1.306250   0.000000
   95       -1.104124   0.000000
   96       -1.056270   0.000000
 
  0.3750000E+00  0.1250000E+00  0.0000000E+00  0.3125000E-01
    1      -17.568880   1.000000
    2      -17.213953   1.000000
    3      -16.932352   1.000000
    4      -16.666919   1.000000
    5      -16.494417   1.000000
    6      -16.405904   1.000000
    7      -16.313862   1.000000
    8      -16.279074   1.000000
    9      -16.111751   1.000000
   10      -16.026252   1.000000
   11      -15.903721   1.000000
   12      -15.787308   1.000000
   13      -15.738803   1.000000
   14      -15.691716   1.000000
   15      -15.595730   1.000000
   16      -15.576712   1.000000
   17      -15.333092   1.000000
   18      -15.235568   1.000000
   19       -9.786665   1.000000
   20       -9.520340   1.000000
   21       -9.243551   1.000000
   22       -9.022531   1.000000
   23       -9.019106   1.000000
   24       -8.715413   1.000000
   25       -8.516302   1.000000
   26       -8.398136   1.000000
   27       -8.369564   1.000000
   28       -8.284772   1.000000
   29       -8.267380   1.000000
   30       -8.184942   1.000000
   31       -8.164525   1.000000
   32       -8.163657   1.000000
   33       -8.047730   1.000000
   34       -7.861355   1.000000
   35       -7.726233   1.000000
   36       -7.672196   1.000000
   37       -7.490298   1.000000
   38       -7.454880   1.000000
   39       -7.379234   1.000000
   40       -7.286036   1.000000
   41       -7.166625   1.000000
   42       -7.088002   1.000000
   43       -7.069941   1.000000
   44       -6.965675   1.000000
   45       -6.888776   1.000000
   46       -6.779166   1.000000
   47       -6.684189   1.000000
   48       -6.547099   1.000000
   49       -6.492821   1.000000
   50       -6.412986   1.000000
   51       -6.364435   1.000000
   52       -6.323398   1.000000
   53       -6.293316   1.000000
   54       -6.173512   1.000000
   55       -6.099501   1.000000
   56       -6.082523   1.000000
   57       -6.009523   1.000000
   58       -5.921812   1.000000
   59       -5.880781   1.000000
   60       -5.706242   1.000000
   61       -5.691873   1.000000
   62       -5.642824   1.000000
   63       -5.568191   1.000000
   64       -5.418514   1.000000
   65       -5.386821   1.000000
   66       -5.139016   1.000000
   67       -5.048396   1.000000
   68       -4.788420   1.000000
   69       -4.754288   1.000000
   70       -4.551808   1.000000
   71       -4.468934   1.000000
   72       -4.397855   1.000000
   73       -4.302153   1.000000
   74       -4.281849   1.000000
   75       -4.222447   1.000000
   76       -4.136457   1.000000
   77       -4.114208   1.000000
   78       -3.863307   0.999994
   79       -3.471679   0.948106
   80       -3.058983   0.098275
   81       -2.934784   0.015016
   82       -2.723896   0.000126
   83       -2.693301   0.000053
   84       -2.645156   0.000012
   85       -2.434059   0.000000
   86       -2.287258   0.000000
   87       -2.051135   0.000000
   88       -2.050806   0.000000
   89       -2.024853   0.000000
   90       -1.945351   0.000000
   91       -1.931530   0.000000
   92       -1.745256   0.000000
   93       -1.485420   0.000000
   94       -1.388535   0.000000
   95       -1.159691   0.000000
   96       -1.091341   0.000000
 
  0.5000000E+00  0.1250000E+00  0.0000000E+00  0.3125000E-01
    1      -17.568867   1.000000
    2      -17.213972   1.000000
    3      -16.932326   1.000000
    4      -16.666913   1.000000
    5      -16.494447   1.000000
    6      -16.405895   1.000000
    7      -16.313859   1.000000
    8      -16.279076   1.000000
    9      -16.111859   1.000000
   10      -16.026237   1.000000
   11      -15.903784   1.000000
   12      -15.787173   1.000000
   13      -15.738752   1.000000
   14      -15.691700   1.000000
   15      -15.595771   1.000000
   16      -15.576715   1.000000
   17      -15.333073   1.000000
   18      -15.235590   1.000000
   19       -9.786652   1.000000
   20       -9.520358   1.000000