 vasp.5.4.1 05Feb16 (build Jul 05 2020 17:13:04) complex                        
  
 executed on           IFC91_ompi date 2024.04.17  15:18:13
 running on   32 total cores
 distrk:  each k-point on   32 cores,    1 groups
 distr:  one band on NCORES_PER_BAND=   1 cores,   32 groups


--------------------------------------------------------------------------------------------------------


 INCAR:
 POTCAR:   PAW_PBE V 08Apr2002                    
 POTCAR:   PAW_PBE Mo 08Apr2002                   
 POTCAR:   PAW_PBE W 08Apr2002                    
 POTCAR:    PAW_PBE S 17Jan2003                   

 ----------------------------------------------------------------------------- 
|                                                                             |
|           W    W    AA    RRRRR   N    N  II  N    N   GGGG   !!!           |
|           W    W   A  A   R    R  NN   N  II  NN   N  G    G  !!!           |
|           W    W  A    A  R    R  N N  N  II  N N  N  G       !!!           |
|           W WW W  AAAAAA  RRRRR   N  N N  II  N  N N  G  GGG   !            |
|           WW  WW  A    A  R   R   N   NN  II  N   NN  G    G                |
|           W    W  A    A  R    R  N    N  II  N    N   GGGG   !!!           |
|                                                                             |
|      For optimal performance we recommend to set                            |
|        NCORE= 4 - approx SQRT( number of cores)                             |
|      NCORE specifies how many cores store one orbital (NPAR=cpu/NCORE).     |
|      This setting can  greatly improve the performance of VASP for DFT.     |
|      The default, NPAR=number of cores might be grossly inefficient         |
|      on modern multi-core architectures or massively parallel machines.     |
|      Do your own testing !!!!                                               |
|      Unfortunately you need to use the default for GW and RPA calculations. |
|      (for HF NCORE is supported but not extensively tested yet)             |
|                                                                             |
 ----------------------------------------------------------------------------- 

 POTCAR:   PAW_PBE V 08Apr2002                    
   VRHFIN =V: p6 d4 s1                                                          
   LEXCH  = PE                                                                  
   EATOM  =   170.8679 eV,   12.5584 Ry                                         
                                                                                
   TITEL  = PAW_PBE V 08Apr2002                                                 
   LULTRA =        F    use ultrasoft PP ?                                      
   IUNSCR =        1    unscreen: 0-lin 1-nonlin 2-no                           
   RPACOR =    2.000    partial core radius                                     
   POMASS =   50.941; ZVAL   =    5.000    mass and valenz                      
   RCORE  =    2.700    outmost cutoff radius                                   
   RWIGS  =    2.500; RWIGS  =    1.323    wigner-seitz radius (au A)           
   ENMAX  =  192.543; ENMIN  =  144.408 eV                                      
   RCLOC  =    1.779    cutoff for local pot                                    
   LCOR   =        T    correct aug charges                                     
   LPAW   =        T    paw PP                                                  
   EAUG   =  358.662                                                            
   DEXC   =    -.034                                                            
   RMAX   =    3.323    core radius for proj-oper                               
   RAUG   =    1.300    factor for augmentation sphere                          
   RDEP   =    2.762    radius for radial grids                                 
   QCUT   =   -3.762; QGAM   =    7.524    optimization parameters              
                                                                                
   Description                                                                  
     l     E      TYP  RCUT    TYP  RCUT                                        
     2   .000     23  2.700                                                     
     2   .000     23  2.700                                                     
     0   .000     23  2.700                                                     
     0  2.000     23  2.700                                                     
     1   .000     23  2.700                                                     
     1  2.000     23  2.700                                                     
     3   .000      7   .000                                                     
  local pseudopotential read in
  partial core-charges read in
  atomic valenz-charges read in
  non local Contribution for L=           2  read in
    real space projection operators read in
  non local Contribution for L=           2  read in
    real space projection operators read in
  non local Contribution for L=           0  read in
    real space projection operators read in
  non local Contribution for L=           0  read in
    real space projection operators read in
  non local Contribution for L=           1  read in
    real space projection operators read in
  non local Contribution for L=           1  read in
    real space projection operators read in
    PAW grid and wavefunctions read in
 
   number of l-projection  operators is LMAX  =           6
   number of lm-projection operators is LMMAX =          18
 
 POTCAR:   PAW_PBE Mo 08Apr2002                   
   VRHFIN =Mo: 4p5s4d                                                           
   LEXCH  = PE                                                                  
   EATOM  =   217.5180 eV,   15.9871 Ry                                         
                                                                                
   TITEL  = PAW_PBE Mo 08Apr2002                                                
   LULTRA =        F    use ultrasoft PP ?                                      
   IUNSCR =        1    unscreen: 0-lin 1-nonlin 2-no                           
   RPACOR =    2.200    partial core radius                                     
   POMASS =   95.940; ZVAL   =    6.000    mass and valenz                      
   RCORE  =    2.750    outmost cutoff radius                                   
   RWIGS  =    2.750; RWIGS  =    1.455    wigner-seitz radius (au A)           
   ENMAX  =  224.584; ENMIN  =  168.438 eV                                      
   RCLOC  =    2.111    cutoff for local pot                                    
   LCOR   =        T    correct aug charges                                     
   LPAW   =        T    paw PP                                                  
   EAUG   =  345.278                                                            
   DEXC   =    -.088                                                            
   RMAX   =    3.077    core radius for proj-oper                               
   RAUG   =    1.300    factor for augmentation sphere                          
   RDEP   =    2.815    radius for radial grids                                 
   QCUT   =   -4.063; QGAM   =    8.126    optimization parameters              
                                                                                
   Description                                                                  
     l     E      TYP  RCUT    TYP  RCUT                                        
     2   .000     23  2.500                                                     
     2   .000     23  2.500                                                     
     0   .000     23  2.600                                                     
     0  1.000     23  2.600                                                     
     1   .400     23  2.750                                                     
     1  2.000     23  2.750                                                     
     3   .000      7   .000                                                     
  local pseudopotential read in
  partial core-charges read in
  atomic valenz-charges read in
  non local Contribution for L=           2  read in
    real space projection operators read in
  non local Contribution for L=           2  read in
    real space projection operators read in
  non local Contribution for L=           0  read in
    real space projection operators read in
  non local Contribution for L=           0  read in
    real space projection operators read in
  non local Contribution for L=           1  read in
    real space projection operators read in
  non local Contribution for L=           1  read in
    real space projection operators read in
    PAW grid and wavefunctions read in
 
   number of l-projection  operators is LMAX  =           6
   number of lm-projection operators is LMMAX =          18
 
 POTCAR:   PAW_PBE W 08Apr2002                    
   VRHFIN =W : 6s5d                                                             
   LEXCH  = PE                                                                  
   EATOM  =   204.6100 eV,   15.0384 Ry                                         
                                                                                
   TITEL  = PAW_PBE W 08Apr2002                                                 
   LULTRA =        F    use ultrasoft PP ?                                      
   IUNSCR =        1    unscreen: 0-lin 1-nonlin 2-no                           
   RPACOR =    2.330    partial core radius                                     
   POMASS =  183.850; ZVAL   =    6.000    mass and valenz                      
   RCORE  =    2.750    outmost cutoff radius                                   
   RWIGS  =    2.750; RWIGS  =    1.455    wigner-seitz radius (au A)           
   ENMAX  =  223.057; ENMIN  =  167.293 eV                                      
   RCLOC  =    2.147    cutoff for local pot                                    
   LCOR   =        T    correct aug charges                                     
   LPAW   =        T    paw PP                                                  
   EAUG   =  373.438                                                            
   DEXC   =    -.060                                                            
   RMAX   =    3.087    core radius for proj-oper                               
   RAUG   =    1.300    factor for augmentation sphere                          
   RDEP   =    2.886    radius for radial grids                                 
   QCUT   =   -4.049; QGAM   =    8.098    optimization parameters              
                                                                                
   Description                                                                  
     l     E      TYP  RCUT    TYP  RCUT                                        
     2   .000     23  2.500                                                     
     2   .000     23  2.500                                                     
     0   .000     23  2.500                                                     
     0   .000     23  2.500                                                     
     1   .200     23  2.750                                                     
     1  2.000     23  2.750                                                     
     3   .000      7   .000                                                     
  local pseudopotential read in
  partial core-charges read in
  atomic valenz-charges read in
  non local Contribution for L=           2  read in
    real space projection operators read in
  non local Contribution for L=           2  read in
    real space projection operators read in
  non local Contribution for L=           0  read in
    real space projection operators read in
  non local Contribution for L=           0  read in
    real space projection operators read in
  non local Contribution for L=           1  read in
    real space projection operators read in
  non local Contribution for L=           1  read in
    real space projection operators read in
    PAW grid and wavefunctions read in
 
   number of l-projection  operators is LMAX  =           6
   number of lm-projection operators is LMMAX =          18
 
 POTCAR:    PAW_PBE S 17Jan2003                   
   VRHFIN =S : s2p4                                                             
   LEXCH  = PE                                                                  
   EATOM  =   276.8230 eV,   20.3459 Ry                                         
                                                                                
   TITEL  = PAW_PBE S 17Jan2003                                                 
   LULTRA =        F    use ultrasoft PP ?                                      
   IUNSCR =        1    unscreen: 0-lin 1-nonlin 2-no                           
   RPACOR =    1.500    partial core radius                                     
   POMASS =   32.066; ZVAL   =    6.000    mass and valenz                      
   RCORE  =    1.900    outmost cutoff radius                                   
   RWIGS  =    2.200; RWIGS  =    1.164    wigner-seitz radius (au A)           
   ENMAX  =  280.000; ENMIN  =  194.016 eV                                      
   ICORE  =        2    local potential                                         
   LCOR   =        T    correct aug charges                                     
   LPAW   =        T    paw PP                                                  
   EAUG   =  335.092                                                            
   DEXC   =     .000                                                            
   RMAX   =    2.867    core radius for proj-oper                               
   RAUG   =    1.300    factor for augmentation sphere                          
   RDEP   =    1.954    radius for radial grids                                 
   QCUT   =   -4.360; QGAM   =    8.721    optimization parameters              
                                                                                
   Description                                                                  
     l     E      TYP  RCUT    TYP  RCUT                                        
     0   .000     23  1.900                                                     
     0   .000     23  1.900                                                     
     1   .000     23  1.900                                                     
     1   .000     23  1.900                                                     
     2   .000     23  1.900                                                     
  local pseudopotential read in
  partial core-charges read in
  atomic valenz-charges read in
  non local Contribution for L=           0  read in
    real space projection operators read in
  non local Contribution for L=           0  read in
    real space projection operators read in
  non local Contribution for L=           1  read in
    real space projection operators read in
  non local Contribution for L=           1  read in
    real space projection operators read in
    PAW grid and wavefunctions read in
 
   number of l-projection  operators is LMAX  =           4
   number of lm-projection operators is LMMAX =           8
 

 ----------------------------------------------------------------------------- 
|                                                                             |
|  ADVICE TO THIS USER RUNNING 'VASP/VAMP'   (HEAR YOUR MASTER'S VOICE ...):  |
|                                                                             |
|      You have a (more or less) 'large supercell' and for larger cells       |
|      it might be more efficient to use real space projection operators      |
|      So try LREAL= Auto  in the INCAR   file.                               |
|      Mind: If you want to do a very accurate calculations keep the          |
|      reciprocal projection scheme          (i.e. LREAL=.FALSE.)             |
|                                                                             |
 ----------------------------------------------------------------------------- 

 PAW_PBE V 08Apr2002                    :
 energy of atom  1       EATOM= -170.8679
 kinetic energy error for atom=    0.0047 (will be added to EATOM!!)
 PAW_PBE Mo 08Apr2002                   :
 energy of atom  2       EATOM= -217.5180
 kinetic energy error for atom=    0.0215 (will be added to EATOM!!)
 PAW_PBE W 08Apr2002                    :
 energy of atom  3       EATOM= -204.6100
 kinetic energy error for atom=    0.0205 (will be added to EATOM!!)
  PAW_PBE S 17Jan2003                   :
 energy of atom  4       EATOM= -276.8230
 kinetic energy error for atom=    0.0122 (will be added to EATOM!!)
 
 
 POSCAR: crystal structure from VMoWS2 with Hexag
  positions in cartesian coordinates
  No initial velocities read in
 exchange correlation table for  LEXCH =        8
   RHO(1)=    0.500       N(1)  =     2000
   RHO(2)=  100.500       N(2)  =     4000
 


--------------------------------------------------------------------------------------------------------


 ion  position               nearest neighbor table
   1  0.000  0.000  0.000-  23 2.34  14 2.34  11 2.36  10 2.36  27 2.36  26 2.36
   2  1.000  0.333  0.000-  25 2.34  10 2.34  13 2.36  12 2.36  22 2.36  23 2.36
   3  0.000  0.667  0.000-  27 2.34  12 2.34  14 2.36  15 2.36  24 2.36  25 2.36
   4  0.333  0.000  0.000-  11 2.34  20 2.34  17 2.36  16 2.36  15 2.36  14 2.36   6 3.34   5 3.34
                             7 3.34   8 3.36
   5  0.333  0.333  0.000-  13 2.34  16 2.34  19 2.36  18 2.36  11 2.36  10 2.36   6 3.34   4 3.34
                             8 3.34   9 3.36
   6  0.333  0.667  0.000-  15 2.34  18 2.34  20 2.36  21 2.36  13 2.36  12 2.36   4 3.34   5 3.34
                             9 3.34   7 3.36
   7  0.667  0.000  0.000-  17 2.34  26 2.34  23 2.36  22 2.36  21 2.36  20 2.36   9 3.34   8 3.34
                             4 3.34   6 3.36
   8  0.667  0.333  0.000-  19 2.34  22 2.34  25 2.36  24 2.36  17 2.36  16 2.36   9 3.34   7 3.34
                             5 3.34   4 3.36
   9  0.667  0.667  0.000-  21 2.34  24 2.34  27 2.36  26 2.36  19 2.36  18 2.36   7 3.34   8 3.34
                             6 3.34   5 3.36
  10  0.111  0.222  0.955-   2 2.34   1 2.36   5 2.36
  11  0.222  0.111  0.045-   4 2.34   1 2.36   5 2.36
  12  0.111  0.556  0.955-   3 2.34   2 2.36   6 2.36
  13  0.222  0.444  0.045-   5 2.34   2 2.36   6 2.36
  14  0.111  0.889  0.955-   1 2.34   3 2.36   4 2.36
  15  0.222  0.777  0.045-   6 2.34   3 2.36   4 2.36
  16  0.444  0.222  0.955-   5 2.34   4 2.36   8 2.36
  17  0.556  0.111  0.045-   7 2.34   4 2.36   8 2.36
  18  0.444  0.556  0.955-   6 2.34   5 2.36   9 2.36
  19  0.556  0.444  0.045-   8 2.34   5 2.36   9 2.36
  20  0.444  0.889  0.955-   4 2.34   6 2.36   7 2.36
  21  0.556  0.777  0.045-   9 2.34   6 2.36   7 2.36
  22  0.777  0.222  0.955-   8 2.34   7 2.36   2 2.36
  23  0.889  0.111  0.045-   1 2.34   7 2.36   2 2.36
  24  0.777  0.556  0.955-   9 2.34   8 2.36   3 2.36
  25  0.889  0.444  0.045-   2 2.34   8 2.36   3 2.36
  26  0.777  0.889  0.955-   7 2.34   9 2.36   1 2.36
  27  0.889  0.777  0.045-   3 2.34   9 2.36   1 2.36
 

IMPORTANT INFORMATION: All symmetrisations will be switched off!
NOSYMM: (Re-)initialisation of all symmetry stuff for point group C_1.

 
 
 KPOINTS: K-POINTS 	#supercell of CrS2 in hexagona

Automatic generation of k-mesh.
Space group operators:
 irot       det(A)        alpha          n_x          n_y          n_z        tau_x        tau_y        tau_z
    1     1.000000     0.000000     1.000000     0.000000     0.000000     0.000000     0.000000     0.000000
 
 Subroutine IBZKPT returns following result:
 ===========================================
 
 Found     34 irreducible k-points:
 
 Following reciprocal coordinates:
            Coordinates               Weight
  0.000000  0.000000  0.000000      1.000000
  0.125000  0.000000  0.000000      2.000000
  0.250000  0.000000  0.000000      2.000000
  0.375000  0.000000  0.000000      2.000000
  0.500000  0.000000  0.000000      1.000000
  0.000000  0.125000  0.000000      2.000000
  0.125000  0.125000  0.000000      2.000000
  0.250000  0.125000  0.000000      2.000000
  0.375000  0.125000  0.000000      2.000000
  0.500000  0.125000  0.000000      2.000000
 -0.375000  0.125000  0.000000      2.000000
 -0.250000  0.125000  0.000000      2.000000
 -0.125000  0.125000  0.000000      2.000000
  0.000000  0.250000  0.000000      2.000000
  0.125000  0.250000  0.000000      2.000000
  0.250000  0.250000  0.000000      2.000000
  0.375000  0.250000  0.000000      2.000000
  0.500000  0.250000  0.000000      2.000000
 -0.375000  0.250000  0.000000      2.000000
 -0.250000  0.250000  0.000000      2.000000
 -0.125000  0.250000  0.000000      2.000000
 -0.000000  0.375000  0.000000      2.000000
  0.125000  0.375000  0.000000      2.000000
  0.250000  0.375000  0.000000      2.000000
  0.375000  0.375000  0.000000      2.000000
  0.500000  0.375000  0.000000      2.000000
 -0.375000  0.375000  0.000000      2.000000
 -0.250000  0.375000  0.000000      2.000000
 -0.125000  0.375000  0.000000      2.000000
  0.000000  0.500000  0.000000      1.000000
  0.125000  0.500000  0.000000      2.000000
  0.250000  0.500000  0.000000      2.000000
  0.375000  0.500000  0.000000      2.000000
  0.500000  0.500000  0.000000      1.000000
 
 Following cartesian coordinates:
            Coordinates               Weight
  0.000000  0.000000  0.000000      1.000000
  0.007209  0.012401  0.000000      2.000000
  0.014418  0.024802  0.000000      2.000000
  0.021626  0.037202  0.000000      2.000000
  0.028835  0.049603  0.000000      1.000000
 -0.007209  0.012401  0.000000      2.000000
  0.000000  0.024802  0.000000      2.000000
  0.007209  0.037202  0.000000      2.000000
  0.014418  0.049603  0.000000      2.000000
  0.021626  0.062004  0.000000      2.000000
 -0.028835 -0.024802  0.000000      2.000000
 -0.021626 -0.012401  0.000000      2.000000
 -0.014418  0.000000  0.000000      2.000000
 -0.014418  0.024802  0.000000      2.000000
 -0.007209  0.037202  0.000000      2.000000
  0.000000  0.049603  0.000000      2.000000
  0.007209  0.062004  0.000000      2.000000
  0.014418  0.074405  0.000000      2.000000
 -0.036044 -0.012401  0.000000      2.000000
 -0.028835  0.000000  0.000000      2.000000
 -0.021626  0.012401  0.000000      2.000000
 -0.021626  0.037202  0.000000      2.000000
 -0.014418  0.049603  0.000000      2.000000
 -0.007209  0.062004  0.000000      2.000000
  0.000000  0.074405  0.000000      2.000000
  0.007209  0.086806  0.000000      2.000000
 -0.043253  0.000000  0.000000      2.000000
 -0.036044  0.012401  0.000000      2.000000
 -0.028835  0.024802  0.000000      2.000000
 -0.028835  0.049603  0.000000      1.000000
 -0.021626  0.062004  0.000000      2.000000
 -0.014418  0.074405  0.000000      2.000000
 -0.007209  0.086806  0.000000      2.000000
  0.000000  0.099206  0.000000      1.000000
 


--------------------------------------------------------------------------------------------------------




 Dimension of arrays:
   k-points           NKPTS =     34   k-points in BZ     NKDIM =     34   number of bands    NBANDS=     96
   number of dos      NEDOS =    301   number of ions     NIONS =     27
   non local maximal  LDIM  =      6   non local SUM 2l+1 LMDIM =     18
   total plane-waves  NPLWV = 222264
   max r-space proj   IRMAX =      1   max aug-charges    IRDMAX=   5642
   dimension x,y,z NGX =    42 NGY =   42 NGZ =  126
   dimension x,y,z NGXF=    84 NGYF=   84 NGZF=  252
   support grid    NGXF=    84 NGYF=   84 NGZF=  252
   ions per type =               3   3   3  18
 NGX,Y,Z   is equivalent  to a cutoff of   6.96,  6.96,  6.98 a.u.
 NGXF,Y,Z  is equivalent  to a cutoff of  13.92, 13.92, 13.96 a.u.


 I would recommend the setting:
   dimension x,y,z NGX =    41 NGY =   41 NGZ =  123
 SYSTEM =  unknown system                          
 POSCAR =  crystal structure from VMoWS2 with Hexag

 Startparameter for this run:
   NWRITE =      2    write-flag & timer
   PREC   = normal    normal or accurate (medium, high low for compatibility)
   ISTART =      0    job   : 0-new  1-cont  2-samecut
   ICHARG =      2    charge: 1-file 2-atom 10-const
   ISPIN  =      1    spin polarized calculation?
   LNONCOLLINEAR =      F non collinear calculations
   LSORBIT =      F    spin-orbit coupling
   INIWAV =      1    electr: 0-lowe 1-rand  2-diag
   LASPH  =      F    aspherical Exc in radial PAW
   METAGGA=      F    non-selfconsistent MetaGGA calc.

 Electronic Relaxation 1
   ENCUT  =  280.0 eV  20.58 Ry    4.54 a.u.  13.68 13.68 40.93*2*pi/ulx,y,z
   ENINI  =  280.0     initial cutoff
   ENAUG  =  373.4 eV  augmentation charge cutoff
   NELM   =     60;   NELMIN=  2; NELMDL= -5     # of ELM steps 
   EDIFF  = 0.1E-03   stopping-criterion for ELM
   LREAL  =      F    real-space projection
   NLSPLINE    = F    spline interpolate recip. space projectors
   LCOMPAT=      F    compatible to vasp.4.4
   GGA_COMPAT  = T    GGA compatible to vasp.4.4-vasp.4.6
   LMAXPAW     = -100 max onsite density
   LMAXMIX     =    2 max onsite mixed and CHGCAR
   VOSKOWN=      0    Vosko Wilk Nusair interpolation
   ROPT   =    0.00000   0.00000   0.00000   0.00000
 Ionic relaxation
   EDIFFG = 0.1E-02   stopping-criterion for IOM
   NSW    =    100    number of steps for IOM
   NBLOCK =      1;   KBLOCK =    100    inner block; outer block 
   IBRION =      1    ionic relax: 0-MD 1-quasi-New 2-CG
   NFREE  =      0    steps in history (QN), initial steepest desc. (CG)
   ISIF   =      3    stress and relaxation
   IWAVPR =     11    prediction:  0-non 1-charg 2-wave 3-comb
   ISYM   =      0    0-nonsym 1-usesym 2-fastsym
   LCORR  =      T    Harris-Foulkes like correction to forces

   POTIM  = 0.5000    time-step for ionic-motion
   TEIN   =    0.0    initial temperature
   TEBEG  =    0.0;   TEEND  =   0.0 temperature during run
   SMASS  =  -3.00    Nose mass-parameter (am)
   estimated Nose-frequenzy (Omega)   =  0.10E-29 period in steps =****** mass=  -0.230E-26a.u.
   SCALEE = 1.0000    scale energy and forces
   NPACO  =    256;   APACO  = 16.0  distance and # of slots for P.C.
   PSTRESS=    0.0 pullay stress

  Mass of Ions in am
   POMASS =  50.94 95.94183.85 32.07
  Ionic Valenz
   ZVAL   =   5.00  6.00  6.00  6.00
  Atomic Wigner-Seitz radii
   RWIGS  =  -1.00 -1.00 -1.00 -1.00
  virtual crystal weights 
   VCA    =   1.00  1.00  1.00  1.00
   NELECT =     159.0000    total number of electrons
   NUPDOWN=      -1.0000    fix difference up-down

 DOS related values:
   EMIN   =  10.00;   EMAX   =-10.00  energy-range for DOS
   EFERMI =   0.00
   ISMEAR =     0;   SIGMA  =   0.20  broadening in eV -4-tet -1-fermi 0-gaus

 Electronic relaxation 2 (details)
   IALGO  =     38    algorithm
   LDIAG  =      T    sub-space diagonalisation (order eigenvalues)
   LSUBROT=      F    optimize rotation matrix (better conditioning)
   TURBO    =      0    0=normal 1=particle mesh
   IRESTART =      0    0=no restart 2=restart with 2 vectors
   NREBOOT  =      0    no. of reboots
   NMIN     =      0    reboot dimension
   EREF     =   0.00    reference energy to select bands
   IMIX   =      4    mixing-type and parameters
     AMIX     =   0.40;   BMIX     =  1.00
     AMIX_MAG =   1.60;   BMIX_MAG =  1.00
     AMIN     =   0.10
     WC   =   100.;   INIMIX=   1;  MIXPRE=   1;  MAXMIX= -45

 Intra band minimization:
   WEIMIN = 0.0010     energy-eigenvalue tresh-hold
   EBREAK =  0.26E-06  absolut break condition
   DEPER  =   0.30     relativ break condition  

   TIME   =   0.40     timestep for ELM

  volume/ion in A,a.u.               =      97.10       655.29
  Fermi-wavevector in a.u.,A,eV,Ry     =   0.643191  1.215456  5.628665  0.413695
  Thomas-Fermi vector in A             =   1.710110
 
 Write flags
   LWAVE  =      F    write WAVECAR
   LCHARG =      F    write CHGCAR
   LVTOT  =      F    write LOCPOT, total local potential
   LVHAR  =      F    write LOCPOT, Hartree potential only
   LELF   =      F    write electronic localiz. function (ELF)
   LORBIT =      0    0 simple, 1 ext, 2 COOP (PROOUT)


 Dipole corrections
   LMONO  =      F    monopole corrections only (constant potential shift)
   LDIPOL =      F    correct potential (dipole corrections)
   IDIPOL =      0    1-x, 2-y, 3-z, 4-all directions 
   EPSILON=  1.0000000 bulk dielectric constant

 Exchange correlation treatment:
   GGA     =    --    GGA type
   LEXCH   =     8    internal setting for exchange type
   VOSKOWN=      0    Vosko Wilk Nusair interpolation
   LHFCALC =     F    Hartree Fock is set to
   LHFONE  =     F    Hartree Fock one center treatment
   AEXX    =    0.0000 exact exchange contribution

 Linear response parameters
   LEPSILON=     F    determine dielectric tensor
   LRPA    =     F    only Hartree local field effects (RPA)
   LNABLA  =     F    use nabla operator in PAW spheres
   LVEL    =     F    velocity operator in full k-point grid
   LINTERFAST=   F  fast interpolation
   KINTER  =     0    interpolate to denser k-point grid
   CSHIFT  =0.1000    complex shift for real part using Kramers Kronig
   OMEGAMAX=  -1.0    maximum frequency
   DEG_THRESHOLD= 0.2000000E-02 threshold for treating states as degnerate
   RTIME   =    0.100 relaxation time in fs

 Orbital magnetization related:
   ORBITALMAG=     F  switch on orbital magnetization
   LCHIMAG   =     F  perturbation theory with respect to B field
   DQ        =  0.001000  dq finite difference perturbation B field



--------------------------------------------------------------------------------------------------------


 quasi-Newton-method for relaxation of ions
 charge density and potential will be updated during run
 non-spin polarized calculation
 Variant of blocked Davidson
 Davidson routine will perform the subspace rotation
 perform sub-space diagonalisation
    after iterative eigenvector-optimisation
 modified Broyden-mixing scheme, WC =      100.0
 initial mixing is a Kerker type mixing with AMIX =  0.4000 and BMIX =      1.0000
 Hartree-type preconditioning will be used
 using additional bands           16
 reciprocal scheme for non local part
 use partial core corrections
 calculate Harris-corrections to forces 
   (improved forces if not selfconsistent)
 use gradient corrections 
 use of overlap-Matrix (Vanderbilt PP)
 Gauss-broadening in eV      SIGMA  =   0.20


--------------------------------------------------------------------------------------------------------


  energy-cutoff  :      280.00
  volume of cell :     2621.81
      direct lattice vectors                 reciprocal lattice vectors
     8.669999960  5.039999894  0.000000000     0.057670129  0.099206348  0.000000000
    -8.669999821  5.040000133  0.000000000    -0.057670126  0.099206350  0.000000000
     0.000000000  0.000000000 30.000000000     0.000000000  0.000000000  0.033333333

  length of vectors
    10.028484344 10.028484344 30.000000000     0.114750788  0.114750788  0.033333333


 
 k-points in units of 2pi/SCALE and weight: K-POINTS 	#supercell of CrS2 in hexagona
   0.00000000  0.00000000  0.00000000       0.016
   0.00720877  0.01240079  0.00000000       0.031
   0.01441753  0.02480159  0.00000000       0.031
   0.02162630  0.03720238  0.00000000       0.031
   0.02883506  0.04960317  0.00000000       0.016
  -0.00720877  0.01240079  0.00000000       0.031
   0.00000000  0.02480159  0.00000000       0.031
   0.00720877  0.03720238  0.00000000       0.031
   0.01441753  0.04960317  0.00000000       0.031
   0.02162630  0.06200397  0.00000000       0.031
  -0.02883506 -0.02480159  0.00000000       0.031
  -0.02162630 -0.01240079  0.00000000       0.031
  -0.01441753  0.00000000  0.00000000       0.031
  -0.01441753  0.02480159  0.00000000       0.031
  -0.00720877  0.03720238  0.00000000       0.031
   0.00000000  0.04960317  0.00000000       0.031
   0.00720877  0.06200397  0.00000000       0.031
   0.01441753  0.07440476  0.00000000       0.031
  -0.03604383 -0.01240079  0.00000000       0.031
  -0.02883506  0.00000000  0.00000000       0.031
  -0.02162630  0.01240079  0.00000000       0.031
  -0.02162630  0.03720238  0.00000000       0.031
  -0.01441753  0.04960317  0.00000000       0.031
  -0.00720877  0.06200397  0.00000000       0.031
   0.00000000  0.07440476  0.00000000       0.031
   0.00720877  0.08680556  0.00000000       0.031
  -0.04325260  0.00000000  0.00000000       0.031
  -0.03604383  0.01240079  0.00000000       0.031
  -0.02883506  0.02480159  0.00000000       0.031
  -0.02883506  0.04960317  0.00000000       0.016
  -0.02162630  0.06200397  0.00000000       0.031
  -0.01441753  0.07440476  0.00000000       0.031
  -0.00720876  0.08680556  0.00000000       0.031
   0.00000000  0.09920635  0.00000000       0.016
 
 k-points in reciprocal lattice and weights: K-POINTS 	#supercell of CrS2 in hexagona
   0.00000000  0.00000000  0.00000000       0.016
   0.12500000  0.00000000  0.00000000       0.031
   0.25000000  0.00000000  0.00000000       0.031
   0.37500000  0.00000000  0.00000000       0.031
   0.50000000  0.00000000  0.00000000       0.016
   0.00000000  0.12500000  0.00000000       0.031
   0.12500000  0.12500000  0.00000000       0.031
   0.25000000  0.12500000  0.00000000       0.031
   0.37500000  0.12500000  0.00000000       0.031
   0.50000000  0.12500000  0.00000000       0.031
  -0.37500000  0.12500000  0.00000000       0.031
  -0.25000000  0.12500000  0.00000000       0.031
  -0.12500000  0.12500000  0.00000000       0.031
   0.00000000  0.25000000  0.00000000       0.031
   0.12500000  0.25000000  0.00000000       0.031
   0.25000000  0.25000000  0.00000000       0.031
   0.37500000  0.25000000  0.00000000       0.031
   0.50000000  0.25000000  0.00000000       0.031
  -0.37500000  0.25000000  0.00000000       0.031
  -0.25000000  0.25000000  0.00000000       0.031
  -0.12500000  0.25000000  0.00000000       0.031
  -0.00000000  0.37500000  0.00000000       0.031
   0.12500000  0.37500000  0.00000000       0.031
   0.25000000  0.37500000  0.00000000       0.031
   0.37500000  0.37500000  0.00000000       0.031
   0.50000000  0.37500000  0.00000000       0.031
  -0.37500000  0.37500000  0.00000000       0.031
  -0.25000000  0.37500000  0.00000000       0.031
  -0.12500000  0.37500000  0.00000000       0.031
   0.00000000  0.50000000  0.00000000       0.016
   0.12500000  0.50000000  0.00000000       0.031
   0.25000000  0.50000000  0.00000000       0.031
   0.37500000  0.50000000  0.00000000       0.031
   0.50000000  0.50000000  0.00000000       0.016
 
 position of ions in fractional coordinates (direct lattice) 
   0.00000000  0.00000000  0.00000000
   1.00000000  0.33333334  0.00000000
   0.00000000  0.66666669  0.00000000
   0.33333334  0.00000000  0.00000000
   0.33333334  0.33333334  0.00000000
   0.33333334  0.66666669  0.00000000
   0.66666669  0.00000000  0.00000000
   0.66666669  0.33333334  0.00000000
   0.66666669  0.66666669  0.00000000
   0.11068511  0.22244981  0.95539999
   0.22244981  0.11068511  0.04460000
   0.11068511  0.55578315  0.95539999
   0.22244981  0.44401845  0.04460000
   0.11068511  0.88911647  0.95539999
   0.22244981  0.77735180  0.04460000
   0.44401845  0.22244981  0.95539999
   0.55578315  0.11068511  0.04460000
   0.44401845  0.55578315  0.95539999
   0.55578315  0.44401845  0.04460000
   0.44401845  0.88911647  0.95539999
   0.55578315  0.77735180  0.04460000
   0.77735180  0.22244981  0.95539999
   0.88911647  0.11068511  0.04460000
   0.77735180  0.55578315  0.95539999
   0.88911647  0.44401845  0.04460000
   0.77735180  0.88911647  0.95539999
   0.88911647  0.77735180  0.04460000
 
 position of ions in cartesian coordinates  (Angst):
   0.00000000  0.00000000  0.00000000
   5.77999993  6.71999999  0.00000000
  -5.78000005  3.36000019  0.00000000
   2.89000007  1.68000002  0.00000000
   0.00000005  3.36000011  0.00000000
  -2.88999998  5.04000020  0.00000000
   5.78000015  3.36000003  0.00000000
   2.89000012  5.04000012  0.00000000
   0.00000009  6.72000022  0.00000000
  -0.96899991  1.67900001 28.66199970
   0.96899995  1.67899998  1.33799996
  -3.85899993  3.35900011 28.66199970
  -1.92100007  3.35900008  1.33799996
  -6.74899970  5.03900005 28.66199970
  -4.81100010  5.03900017  1.33799996
   1.92100017  3.35900003 28.66199970
   3.85900003  3.35900000  1.33799996
  -0.96899986  5.03900012 28.66199970
   0.96900000  5.03900009  1.33799996
  -3.85899963  6.71900006 28.66199970
  -1.92100003  6.71900019  1.33799996
   4.81100024  5.03900004 28.66199970
   6.74899984  5.03899987  1.33799996
   1.92100021  6.71900014 28.66199970
   3.85899981  6.71899996  1.33799996
  -0.96899956  8.39900008 28.66199970
   0.96899979  8.39900005  1.33799996
 


--------------------------------------------------------------------------------------------------------


 k-point  1 :   0.0000 0.0000 0.0000  plane waves:   27959
 k-point  2 :   0.1250 0.0000 0.0000  plane waves:   27889
 k-point  3 :   0.2500 0.0000 0.0000  plane waves:   27875
 k-point  4 :   0.3750 0.0000 0.0000  plane waves:   27893
 k-point  5 :   0.5000 0.0000 0.0000  plane waves:   27932
 k-point  6 :   0.0000 0.1250 0.0000  plane waves:   27889
 k-point  7 :   0.1250 0.1250 0.0000  plane waves:   27906
 k-point  8 :   0.2500 0.1250 0.0000  plane waves:   27898
 k-point  9 :   0.3750 0.1250 0.0000  plane waves:   27888
 k-point 10 :   0.5000 0.1250 0.0000  plane waves:   27873
 k-point 11 :  -0.3750 0.1250 0.0000  plane waves:   27874
 k-point 12 :  -0.2500 0.1250 0.0000  plane waves:   27895
 k-point 13 :  -0.1250 0.1250 0.0000  plane waves:   27879
 k-point 14 :   0.0000 0.2500 0.0000  plane waves:   27875
 k-point 15 :   0.1250 0.2500 0.0000  plane waves:   27898
 k-point 16 :   0.2500 0.2500 0.0000  plane waves:   27920
 k-point 17 :   0.3750 0.2500 0.0000  plane waves:   27901
 k-point 18 :   0.5000 0.2500 0.0000  plane waves:   27875
 k-point 19 :  -0.3750 0.2500 0.0000  plane waves:   27894
 k-point 20 :  -0.2500 0.2500 0.0000  plane waves:   27870
 k-point 21 :  -0.1250 0.2500 0.0000  plane waves:   27895
 k-point 22 :  -0.0000 0.3750 0.0000  plane waves:   27893
 k-point 23 :   0.1250 0.3750 0.0000  plane waves:   27888
 k-point 24 :   0.2500 0.3750 0.0000  plane waves:   27901
 k-point 25 :   0.3750 0.3750 0.0000  plane waves:   27860
 k-point 26 :   0.5000 0.3750 0.0000  plane waves:   27895
 k-point 27 :  -0.3750 0.3750 0.0000  plane waves:   27858
 k-point 28 :  -0.2500 0.3750 0.0000  plane waves:   27894
 k-point 29 :  -0.1250 0.3750 0.0000  plane waves:   27874
 k-point 30 :   0.0000 0.5000 0.0000  plane waves:   27932
 k-point 31 :   0.1250 0.5000 0.0000  plane waves:   27873
 k-point 32 :   0.2500 0.5000 0.0000  plane waves:   27875
 k-point 33 :   0.3750 0.5000 0.0000  plane waves:   27895
 k-point 34 :   0.5000 0.5000 0.0000  plane waves:   27910

 maximum and minimum number of plane-waves per node :     27959    27858

 maximum number of plane-waves:     27959
 maximum index in each direction: 
   IXMAX=   14   IYMAX=   13   IZMAX=   40
   IXMIN=  -14   IYMIN=  -14   IZMIN=  -40

 WARNING: aliasing errors must be expected set NGX to  58 to avoid them
 WARNING: aliasing errors must be expected set NGY to  56 to avoid them
 WARNING: aliasing errors must be expected set NGZ to 162 to avoid them
 aliasing errors are usually negligible using standard VASP settings
 and one can safely disregard these warnings

 serial   3D FFT for wavefunctions

 total amount of memory used by VASP on root node   652136. kBytes
========================================================================

   base      :      30000. kBytes
   nonl-proj :     559807. kBytes
   fftplans  :       2791. kBytes
   grid      :      12953. kBytes
   one-center:        419. kBytes
   wavefun   :      46166. kBytes
 
     INWAV:  cpu time    0.0000: real time    0.0000
 Broyden mixing: mesh for mixing (old mesh)
   NGX = 27   NGY = 27   NGZ = 81
  (NGX  = 84   NGY  = 84   NGZ  =252)
  gives a total of  59049 points

 initial charge density was supplied:
 charge density of overlapping atoms calculated
 number of electron     159.0000000 magnetization 
 keeping initial charge density in first step


--------------------------------------------------------------------------------------------------------


 Maximum index for augmentation-charges          176 (set IRDMAX)


--------------------------------------------------------------------------------------------------------


 First call to EWALD:  gamma=   0.129
 Maximum number of real-space cells 4x 4x 2
 Maximum number of reciprocal cells 2x 2x 5

 FEWALD executed in parallel
    FEWALD:  cpu time    0.0016: real time    0.0015


----------------------------------------- Iteration    1(   1)  ---------------------------------------


    POTLOK:  cpu time    0.0425: real time    0.0426
    SETDIJ:  cpu time    0.0031: real time    0.0031
     EDDAV:  cpu time   20.8934: real time   20.9454
       DOS:  cpu time    0.0021: real time    0.0023
    --------------------------------------------
      LOOP:  cpu time   20.9439: real time   20.9987

 eigenvalue-minimisations  :  6560
 total energy-change (2. order) : 0.1222848E+04  (-0.3710731E+04)
 number of electron     159.0000000 magnetization 
 augmentation part      159.0000000 magnetization 

 Free energy of the ion-electron system (eV)
  ---------------------------------------------------
  alpha Z        PSCENC =        81.65567618
  Ewald energy   TEWEN  =     41891.19377234
  -Hartree energ DENC   =    -47723.83903790
  -exchange      EXHF   =         0.00000000
  -V(xc)+E(xc)   XCENC  =      -242.92449831
  PAW double counting   =      3467.42045192    -2871.19716117
  entropy T*S    EENTRO =        -0.41841843
  eigenvalues    EBANDS =      -140.48540793
  atomic energy  EATOM  =      6761.44252427
  Solvation  Ediel_sol  =         0.00000000
  ---------------------------------------------------
  free energy    TOTEN  =      1222.84790098 eV

  energy without entropy =     1223.26631941  energy(sigma->0) =     1223.05711019


--------------------------------------------------------------------------------------------------------




----------------------------------------- Iteration    1(   2)  ---------------------------------------


     EDDAV:  cpu time   31.1151: real time   31.1900
       DOS:  cpu time    0.0001: real time    0.0009
    --------------------------------------------
      LOOP:  cpu time   31.1170: real time   31.1974

 eigenvalue-minimisations  : 10688
 total energy-change (2. order) :-0.1191453E+04  (-0.1181780E+04)
 number of electron     159.0000000 magnetization 
 augmentation part      159.0000000 magnetization 

 Free energy of the ion-electron system (eV)
  ---------------------------------------------------
  alpha Z        PSCENC =        81.65567618
  Ewald energy   TEWEN  =     41891.19377234
  -Hartree energ DENC   =    -47723.83903790
  -exchange      EXHF   =         0.00000000
  -V(xc)+E(xc)   XCENC  =      -242.92449831
  PAW double counting   =      3467.42045192    -2871.19716117
  entropy T*S    EENTRO =        -0.21506107
  eigenvalues    EBANDS =     -1332.14172329
  atomic energy  EATOM  =      6761.44252427
  Solvation  Ediel_sol  =         0.00000000
  ---------------------------------------------------
  free energy    TOTEN  =        31.39494298 eV

  energy without entropy =       31.61000405  energy(sigma->0) =       31.50247352


--------------------------------------------------------------------------------------------------------




----------------------------------------- Iteration    1(   3)  ---------------------------------------


     EDDAV:  cpu time   24.0283: real time   24.0864
       DOS:  cpu time    0.0011: real time    0.0011
    --------------------------------------------
      LOOP:  cpu time   24.0306: real time   24.0945

 eigenvalue-minimisations  :  7872
 total energy-change (2. order) :-0.2282728E+03  (-0.2270900E+03)
 number of electron     159.0000000 magnetization 
 augmentation part      159.0000000 magnetization 

 Free energy of the ion-electron system (eV)
  ---------------------------------------------------
  alpha Z        PSCENC =        81.65567618
  Ewald energy   TEWEN  =     41891.19377234
  -Hartree energ DENC   =    -47723.83903790
  -exchange      EXHF   =         0.00000000
  -V(xc)+E(xc)   XCENC  =      -242.92449831
  PAW double counting   =      3467.42045192    -2871.19716117
  entropy T*S    EENTRO =        -0.21213639
  eigenvalues    EBANDS =     -1560.41742371
  atomic energy  EATOM  =      6761.44252427
  Solvation  Ediel_sol  =         0.00000000
  ---------------------------------------------------
  free energy    TOTEN  =      -196.87783276 eV

  energy without entropy =     -196.66569638  energy(sigma->0) =     -196.77176457


--------------------------------------------------------------------------------------------------------




----------------------------------------- Iteration    1(   4)  ---------------------------------------


     EDDAV:  cpu time   31.0609: real time   31.1372
       DOS:  cpu time    0.0010: real time    0.0010
    --------------------------------------------
      LOOP:  cpu time   31.0641: real time   31.1433

 eigenvalue-minimisations  : 10720
 total energy-change (2. order) :-0.1226477E+02  (-0.1218483E+02)
 number of electron     159.0000000 magnetization 
 augmentation part      159.0000000 magnetization 

 Free energy of the ion-electron system (eV)
  ---------------------------------------------------
  alpha Z        PSCENC =        81.65567618
  Ewald energy   TEWEN  =     41891.19377234
  -Hartree energ DENC   =    -47723.83903790
  -exchange      EXHF   =         0.00000000
  -V(xc)+E(xc)   XCENC  =      -242.92449831
  PAW double counting   =      3467.42045192    -2871.19716117
  entropy T*S    EENTRO =        -0.25456492
  eigenvalues    EBANDS =     -1572.63976694
  atomic energy  EATOM  =      6761.44252427
  Solvation  Ediel_sol  =         0.00000000
  ---------------------------------------------------
  free energy    TOTEN  =      -209.14260452 eV

  energy without entropy =     -208.88803960  energy(sigma->0) =     -209.01532206


--------------------------------------------------------------------------------------------------------




----------------------------------------- Iteration    1(   5)  ---------------------------------------


     EDDAV:  cpu time   24.4570: real time   24.5159
       DOS:  cpu time    0.0004: real time    0.0012
    CHARGE:  cpu time    0.5462: real time    0.5475
    MIXING:  cpu time    0.0017: real time    0.0017
    --------------------------------------------
      LOOP:  cpu time   25.0071: real time   25.0727

 eigenvalue-minimisations  :  8032
 total energy-change (2. order) :-0.2559536E+00  (-0.2542867E+00)
 number of electron     159.0000110 magnetization 
 augmentation part       -9.8595231 magnetization 

 Broyden mixing:
  rms(total) = 0.27766E+01    rms(broyden)= 0.27761E+01
  rms(prec ) = 0.29662E+01
  weight for this iteration     100.00

 Free energy of the ion-electron system (eV)
  ---------------------------------------------------
  alpha Z        PSCENC =        81.65567618
  Ewald energy   TEWEN  =     41891.19377234
  -Hartree energ DENC   =    -47723.83903790
  -exchange      EXHF   =         0.00000000
  -V(xc)+E(xc)   XCENC  =      -242.92449831
  PAW double counting   =      3467.42045192    -2871.19716117
  entropy T*S    EENTRO =        -0.25655582
  eigenvalues    EBANDS =     -1572.89372959
  atomic energy  EATOM  =      6761.44252427
  Solvation  Ediel_sol  =         0.00000000
  ---------------------------------------------------
  free energy    TOTEN  =      -209.39855807 eV

  energy without entropy =     -209.14200225  energy(sigma->0) =     -209.27028016


--------------------------------------------------------------------------------------------------------




----------------------------------------- Iteration    1(   6)  ---------------------------------------


    POTLOK:  cpu time    0.0377: real time    0.0381
    SETDIJ:  cpu time    0.0024: real time    0.0024
     EDDAV:  cpu time   31.7438: real time   31.8202
       DOS:  cpu time    0.0009: real time    0.0009
    CHARGE:  cpu time    0.5428: real time    0.5441
    MIXING:  cpu time    0.0029: real time    0.0030
    --------------------------------------------
      LOOP:  cpu time   32.3317: real time   32.4160

 eigenvalue-minimisations  : 11008
 total energy-change (2. order) :-0.3043914E+02  (-0.8328039E+02)
 number of electron     159.0000105 magnetization 
 augmentation part        7.1250975 magnetization 

 Broyden mixing:
  rms(total) = 0.60908E+01    rms(broyden)= 0.60902E+01
  rms(prec ) = 0.67260E+01
  weight for this iteration     100.00

 eigenvalues of (default mixing * dielectric matrix)
  average eigenvalue GAMMA=   0.2903
  0.2903

 Free energy of the ion-electron system (eV)
  ---------------------------------------------------
  alpha Z        PSCENC =        81.65567618
  Ewald energy   TEWEN  =     41891.19377234
  -Hartree energ DENC   =    -47702.16499015
  -exchange      EXHF   =         0.00000000
  -V(xc)+E(xc)   XCENC  =      -233.58174920
  PAW double counting   =      3677.05157359    -3083.05696360
  entropy T*S    EENTRO =        -0.26181311
  eigenvalues    EBANDS =     -1632.11573284
  atomic energy  EATOM  =      6761.44252427
  Solvation  Ediel_sol  =         0.00000000
  ---------------------------------------------------
  free energy    TOTEN  =      -239.83770252 eV

  energy without entropy =     -239.57588942  energy(sigma->0) =     -239.70679597


--------------------------------------------------------------------------------------------------------




----------------------------------------- Iteration    1(   7)  ---------------------------------------


    POTLOK:  cpu time    0.0362: real time    0.0363
    SETDIJ:  cpu time    0.0024: real time    0.0024
     EDDAV:  cpu time   36.3302: real time   36.4178
       DOS:  cpu time    0.0012: real time    0.0012
    CHARGE:  cpu time    0.5446: real time    0.5460
    MIXING:  cpu time    0.0014: real time    0.0014
    --------------------------------------------
      LOOP:  cpu time   36.9170: real time   37.0138

 eigenvalue-minimisations  : 12800
 total energy-change (2. order) : 0.5159598E+02  (-0.3413071E+02)
 number of electron     159.0000080 magnetization 
 augmentation part       -4.4086672 magnetization 

 Broyden mixing:
  rms(total) = 0.14260E+01    rms(broyden)= 0.14217E+01
  rms(prec ) = 0.16022E+01
  weight for this iteration     100.00

 eigenvalues of (default mixing * dielectric matrix)
  average eigenvalue GAMMA=   0.5059
  0.7811  0.2307

 Free energy of the ion-electron system (eV)
  ---------------------------------------------------
  alpha Z        PSCENC =        81.65567618
  Ewald energy   TEWEN  =     41891.19377234
  -Hartree energ DENC   =    -47737.37962985
  -exchange      EXHF   =         0.00000000
  -V(xc)+E(xc)   XCENC  =      -234.89199975
  PAW double counting   =      3762.30553126    -3176.29213586
  entropy T*S    EENTRO =        -0.30328569
  eigenvalues    EBANDS =     -1535.97217756
  atomic energy  EATOM  =      6761.44252427
  Solvation  Ediel_sol  =         0.00000000
  ---------------------------------------------------
  free energy    TOTEN  =      -188.24172464 eV

  energy without entropy =     -187.93843895  energy(sigma->0) =     -188.09008180


--------------------------------------------------------------------------------------------------------




----------------------------------------- Iteration    1(   8)  ---------------------------------------


    POTLOK:  cpu time    0.0370: real time    0.0371
    SETDIJ:  cpu time    0.0024: real time    0.0024
     EDDAV:  cpu time   30.8168: real time   30.8905
       DOS:  cpu time    0.0004: real time    0.0012
    CHARGE:  cpu time    0.5433: real time    0.5446
    MIXING:  cpu time    0.0014: real time    0.0014
    --------------------------------------------
      LOOP:  cpu time   31.4032: real time   31.4850

 eigenvalue-minimisations  : 10624
 total energy-change (2. order) :-0.2642006E+01  (-0.1066361E+02)
 number of electron     159.0000096 magnetization 
 augmentation part       -7.0035085 magnetization 

 Broyden mixing:
  rms(total) = 0.15405E+01    rms(broyden)= 0.15402E+01
  rms(prec ) = 0.16613E+01
  weight for this iteration     100.00

 eigenvalues of (default mixing * dielectric matrix)
  average eigenvalue GAMMA=   0.6622
  1.3269  0.2752  0.3845

 Free energy of the ion-electron system (eV)
  ---------------------------------------------------
  alpha Z        PSCENC =        81.65567618
  Ewald energy   TEWEN  =     41891.19377234
  -Hartree energ DENC   =    -47763.56962076
  -exchange      EXHF   =         0.00000000
  -V(xc)+E(xc)   XCENC  =      -235.46654762
  PAW double counting   =      3898.92903105    -3314.36594845
  entropy T*S    EENTRO =        -0.30984598
  eigenvalues    EBANDS =     -1510.39277118
  atomic energy  EATOM  =      6761.44252427
  Solvation  Ediel_sol  =         0.00000000
  ---------------------------------------------------
  free energy    TOTEN  =      -190.88373015 eV

  energy without entropy =     -190.57388417  energy(sigma->0) =     -190.72880716


--------------------------------------------------------------------------------------------------------




----------------------------------------- Iteration    1(   9)  ---------------------------------------


    POTLOK:  cpu time    0.0363: real time    0.0363
    SETDIJ:  cpu time    0.0024: real time    0.0024
     EDDAV:  cpu time   31.3212: real time   31.3966
       DOS:  cpu time    0.0001: real time    0.0009
    CHARGE:  cpu time    0.5444: real time    0.5457
    MIXING:  cpu time    0.0015: real time    0.0015
    --------------------------------------------
      LOOP:  cpu time   31.9079: real time   31.9919

 eigenvalue-minimisations  : 10848
 total energy-change (2. order) : 0.2448776E+01  (-0.1816792E+01)
 number of electron     159.0000089 magnetization 
 augmentation part       -5.5738200 magnetization 

 Broyden mixing:
  rms(total) = 0.10127E+01    rms(broyden)= 0.10124E+01
  rms(prec ) = 0.11128E+01
  weight for this iteration     100.00

 eigenvalues of (default mixing * dielectric matrix)
  average eigenvalue GAMMA=   0.7176
  1.7999  0.4762  0.2498  0.3446

 Free energy of the ion-electron system (eV)
  ---------------------------------------------------
  alpha Z        PSCENC =        81.65567618
  Ewald energy   TEWEN  =     41891.19377234
  -Hartree energ DENC   =    -47769.18669060
  -exchange      EXHF   =         0.00000000
  -V(xc)+E(xc)   XCENC  =      -233.83442582
  PAW double counting   =      4007.16339152    -3424.10637701
  entropy T*S    EENTRO =        -0.32547365
  eigenvalues    EBANDS =     -1502.43735109
  atomic energy  EATOM  =      6761.44252427
  Solvation  Ediel_sol  =         0.00000000
  ---------------------------------------------------
  free energy    TOTEN  =      -188.43495386 eV

  energy without entropy =     -188.10948021  energy(sigma->0) =     -188.27221704


--------------------------------------------------------------------------------------------------------




----------------------------------------- Iteration    1(  10)  ---------------------------------------


    POTLOK:  cpu time    0.0357: real time    0.0360
    SETDIJ:  cpu time    0.0025: real time    0.0025
     EDDAV:  cpu time   31.2904: real time   31.3651
       DOS:  cpu time    0.0011: real time    0.0011
    CHARGE:  cpu time    0.5427: real time    0.5440
    MIXING:  cpu time    0.0015: real time    0.0015
    --------------------------------------------
      LOOP:  cpu time   31.8751: real time   31.9581

 eigenvalue-minimisations  : 10816
 total energy-change (2. order) : 0.1474486E+01  (-0.1062834E+01)
 number of electron     159.0000092 magnetization 
 augmentation part       -4.3957492 magnetization 

 Broyden mixing:
  rms(total) = 0.24991E+00    rms(broyden)= 0.24920E+00
  rms(prec ) = 0.25933E+00
  weight for this iteration     100.00

 eigenvalues of (default mixing * dielectric matrix)
  average eigenvalue GAMMA=   0.7831
  1.9788  0.9132  0.4638  0.2499  0.3097

 Free energy of the ion-electron system (eV)
  ---------------------------------------------------
  alpha Z        PSCENC =        81.65567618
  Ewald energy   TEWEN  =     41891.19377234
  -Hartree energ DENC   =    -47778.38345751
  -exchange      EXHF   =         0.00000000
  -V(xc)+E(xc)   XCENC  =      -232.56560957
  PAW double counting   =      4099.71492002    -3517.92800357
  entropy T*S    EENTRO =        -0.35369497
  eigenvalues    EBANDS =     -1491.73659454
  atomic energy  EATOM  =      6761.44252427
  Solvation  Ediel_sol  =         0.00000000
  ---------------------------------------------------
  free energy    TOTEN  =      -186.96046737 eV

  energy without entropy =     -186.60677240  energy(sigma->0) =     -186.78361989


--------------------------------------------------------------------------------------------------------




----------------------------------------- Iteration    1(  11)  ---------------------------------------


    POTLOK:  cpu time    0.0354: real time    0.0355
    SETDIJ:  cpu time    0.0023: real time    0.0023
     EDDAV:  cpu time   29.2521: real time   29.3227
       DOS:  cpu time    0.0012: real time    0.0012
    CHARGE:  cpu time    0.5447: real time    0.5461
    MIXING:  cpu time    0.0006: real time    0.0015
    --------------------------------------------
      LOOP:  cpu time   29.8384: real time   29.9173

 eigenvalue-minimisations  : 10016
 total energy-change (2. order) : 0.9043051E-01  (-0.4650712E-01)
 number of electron     159.0000090 magnetization 
 augmentation part       -4.1765735 magnetization 

 Broyden mixing:
  rms(total) = 0.11665E+00    rms(broyden)= 0.11659E+00
  rms(prec ) = 0.12410E+00
  weight for this iteration     100.00

 eigenvalues of (default mixing * dielectric matrix)
  average eigenvalue GAMMA=   0.9447
  2.0215  1.6537  0.9489  0.4772  0.2500  0.3168

 Free energy of the ion-electron system (eV)
  ---------------------------------------------------
  alpha Z        PSCENC =        81.65567618
  Ewald energy   TEWEN  =     41891.19377234
  -Hartree energ DENC   =    -47788.02207921
  -exchange      EXHF   =         0.00000000
  -V(xc)+E(xc)   XCENC  =      -232.11896432
  PAW double counting   =      4154.86093907    -3573.24165618
  entropy T*S    EENTRO =        -0.35040046
  eigenvalues    EBANDS =     -1482.28984856
  atomic energy  EATOM  =      6761.44252427
  Solvation  Ediel_sol  =         0.00000000
  ---------------------------------------------------
  free energy    TOTEN  =      -186.87003686 eV

  energy without entropy =     -186.51963640  energy(sigma->0) =     -186.69483663


--------------------------------------------------------------------------------------------------------




----------------------------------------- Iteration    1(  12)  ---------------------------------------


    POTLOK:  cpu time    0.0362: real time    0.0363
    SETDIJ:  cpu time    0.0024: real time    0.0024
     EDDAV:  cpu time   31.4451: real time   31.5203
       DOS:  cpu time    0.0011: real time    0.0011
    CHARGE:  cpu time    0.5424: real time    0.5437
    MIXING:  cpu time    0.0017: real time    0.0017
    --------------------------------------------
      LOOP:  cpu time   32.0302: real time   32.1137

 eigenvalue-minimisations  : 10880
 total energy-change (2. order) :-0.4190435E-01  (-0.9236016E-01)
 number of electron     159.0000089 magnetization 
 augmentation part       -4.1150245 magnetization 

 Broyden mixing:
  rms(total) = 0.30362E+00    rms(broyden)= 0.30351E+00
  rms(prec ) = 0.33547E+00
  weight for this iteration     100.00

 eigenvalues of (default mixing * dielectric matrix)
  average eigenvalue GAMMA=   0.8525
  2.0540  1.7609  0.9641  0.4764  0.2501  0.3165  0.1456

 Free energy of the ion-electron system (eV)
  ---------------------------------------------------
  alpha Z        PSCENC =        81.65567618
  Ewald energy   TEWEN  =     41891.19377234
  -Hartree energ DENC   =    -47798.81781899
  -exchange      EXHF   =         0.00000000
  -V(xc)+E(xc)   XCENC  =      -231.98735143
  PAW double counting   =      4184.11878855    -3602.30191539
  entropy T*S    EENTRO =        -0.34513400
  eigenvalues    EBANDS =     -1471.87048274
  atomic energy  EATOM  =      6761.44252427
  Solvation  Ediel_sol  =         0.00000000
  ---------------------------------------------------
  free energy    TOTEN  =      -186.91194122 eV

  energy without entropy =     -186.56680721  energy(sigma->0) =     -186.73937422


--------------------------------------------------------------------------------------------------------




----------------------------------------- Iteration    1(  13)  ---------------------------------------


    POTLOK:  cpu time    0.0365: real time    0.0366
    SETDIJ:  cpu time    0.0025: real time    0.0025
     EDDAV:  cpu time   30.0506: real time   30.1230
       DOS:  cpu time    0.0011: real time    0.0011
    CHARGE:  cpu time    0.5454: real time    0.5467
    MIXING:  cpu time    0.0017: real time    0.0017
    --------------------------------------------
      LOOP:  cpu time   30.6389: real time   30.7201

 eigenvalue-minimisations  : 10336
 total energy-change (2. order) : 0.7188877E-01  (-0.9399550E-01)
 number of electron     159.0000089 magnetization 
 augmentation part       -4.1681174 magnetization 

 Broyden mixing:
  rms(total) = 0.93310E-01    rms(broyden)= 0.93009E-01
  rms(prec ) = 0.10476E+00
  weight for this iteration     100.00

 eigenvalues of (default mixing * dielectric matrix)
  average eigenvalue GAMMA=   0.8140
  2.1673  1.7337  1.0166  0.4534  0.4534  0.2500  0.3169  0.1211

 Free energy of the ion-electron system (eV)
  ---------------------------------------------------
  alpha Z        PSCENC =        81.65567618
  Ewald energy   TEWEN  =     41891.19377234
  -Hartree energ DENC   =    -47800.72574388
  -exchange      EXHF   =         0.00000000
  -V(xc)+E(xc)   XCENC  =      -231.95955088
  PAW double counting   =      4187.63329421    -3605.79571976
  entropy T*S    EENTRO =        -0.34617867
  eigenvalues    EBANDS =     -1469.93812627
  atomic energy  EATOM  =      6761.44252427
  Solvation  Ediel_sol  =         0.00000000
  ---------------------------------------------------
  free energy    TOTEN  =      -186.84005245 eV

  energy without entropy =     -186.49387378  energy(sigma->0) =     -186.66696312


--------------------------------------------------------------------------------------------------------




----------------------------------------- Iteration    1(  14)  ---------------------------------------


    POTLOK:  cpu time    0.0356: real time    0.0357
    SETDIJ:  cpu time    0.0024: real time    0.0024
     EDDAV:  cpu time   31.3094: real time   31.3843
       DOS:  cpu time    0.0010: real time    0.0010
    CHARGE:  cpu time    0.5421: real time    0.5434
    MIXING:  cpu time    0.0018: real time    0.0018
    --------------------------------------------
      LOOP:  cpu time   31.8934: real time   31.9781

 eigenvalue-minimisations  : 10816
 total energy-change (2. order) : 0.6853334E-02  (-0.1687537E-01)
 number of electron     159.0000089 magnetization 
 augmentation part       -4.1991867 magnetization 

 Broyden mixing:
  rms(total) = 0.54716E-01    rms(broyden)= 0.54639E-01
  rms(prec ) = 0.62178E-01
  weight for this iteration     100.00

 eigenvalues of (default mixing * dielectric matrix)
  average eigenvalue GAMMA=   0.8071
  2.3312  1.6619  1.1772  0.7002  0.4831  0.3163  0.2502  0.2248  0.1185

 Free energy of the ion-electron system (eV)
  ---------------------------------------------------
  alpha Z        PSCENC =        81.65567618
  Ewald energy   TEWEN  =     41891.19377234
  -Hartree energ DENC   =    -47803.38013343
  -exchange      EXHF   =         0.00000000
  -V(xc)+E(xc)   XCENC  =      -231.91093147
  PAW double counting   =      4190.87612635    -3609.02270525
  entropy T*S    EENTRO =        -0.34574178
  eigenvalues    EBANDS =     -1467.34178634
  atomic energy  EATOM  =      6761.44252427
  Solvation  Ediel_sol  =         0.00000000
  ---------------------------------------------------
  free energy    TOTEN  =      -186.83319912 eV

  energy without entropy =     -186.48745734  energy(sigma->0) =     -186.66032823


--------------------------------------------------------------------------------------------------------




----------------------------------------- Iteration    1(  15)  ---------------------------------------


    POTLOK:  cpu time    0.0365: real time    0.0366
    SETDIJ:  cpu time    0.0025: real time    0.0025
     EDDAV:  cpu time   31.2274: real time   31.3026
       DOS:  cpu time    0.0012: real time    0.0012
    CHARGE:  cpu time    0.5457: real time    0.5471
    MIXING:  cpu time    0.0020: real time    0.0020
    --------------------------------------------
      LOOP:  cpu time   31.8165: real time   31.9001

 eigenvalue-minimisations  : 10816
 total energy-change (2. order) :-0.1033058E-03  (-0.9850497E-02)
 number of electron     159.0000089 magnetization 
 augmentation part       -4.2166250 magnetization 

 Broyden mixing:
  rms(total) = 0.75891E-01    rms(broyden)= 0.75852E-01
  rms(prec ) = 0.84087E-01
  weight for this iteration     100.00

 eigenvalues of (default mixing * dielectric matrix)
  average eigenvalue GAMMA=   0.7685
  2.4032  1.6194  1.3117  0.7732  0.4827  0.3152  0.2496  0.2772  0.1355  0.1171

 Free energy of the ion-electron system (eV)
  ---------------------------------------------------
  alpha Z        PSCENC =        81.65567618
  Ewald energy   TEWEN  =     41891.19377234
  -Hartree energ DENC   =    -47807.12549971
  -exchange      EXHF   =         0.00000000
  -V(xc)+E(xc)   XCENC  =      -231.83765142
  PAW double counting   =      4194.34131245    -3612.46712914
  entropy T*S    EENTRO =        -0.34508663
  eigenvalues    EBANDS =     -1463.69122077
  atomic energy  EATOM  =      6761.44252427
  Solvation  Ediel_sol  =         0.00000000
  ---------------------------------------------------
  free energy    TOTEN  =      -186.83330242 eV

  energy without entropy =     -186.48821579  energy(sigma->0) =     -186.66075911


--------------------------------------------------------------------------------------------------------




----------------------------------------- Iteration    1(  16)  ---------------------------------------


    POTLOK:  cpu time    0.0357: real time    0.0358
    SETDIJ:  cpu time    0.0025: real time    0.0025
     EDDAV:  cpu time   31.1500: real time   31.2245
       DOS:  cpu time    0.0012: real time    0.0012
    CHARGE:  cpu time    0.5433: real time    0.5447
    MIXING:  cpu time    0.0020: real time    0.0020
    --------------------------------------------
      LOOP:  cpu time   31.7356: real time   31.8180

 eigenvalue-minimisations  : 10752
 total energy-change (2. order) : 0.4992129E-02  (-0.5694420E-02)
 number of electron     159.0000089 magnetization 
 augmentation part       -4.2171805 magnetization 

 Broyden mixing:
  rms(total) = 0.21522E-01    rms(broyden)= 0.21447E-01
  rms(prec ) = 0.25220E-01
  weight for this iteration     100.00

 eigenvalues of (default mixing * dielectric matrix)
  average eigenvalue GAMMA=   0.8017
  2.2221  1.9400  1.3125  0.9585  0.8399  0.4787  0.3166  0.2497  0.2592  0.1254
  0.1165

 Free energy of the ion-electron system (eV)
  ---------------------------------------------------
  alpha Z        PSCENC =        81.65567618
  Ewald energy   TEWEN  =     41891.19377234
  -Hartree energ DENC   =    -47809.11666256
  -exchange      EXHF   =         0.00000000
  -V(xc)+E(xc)   XCENC  =      -231.80172696
  PAW double counting   =      4195.50202397    -3613.61360655
  entropy T*S    EENTRO =        -0.34512052
  eigenvalues    EBANDS =     -1461.74519046
  atomic energy  EATOM  =      6761.44252427
  Solvation  Ediel_sol  =         0.00000000
  ---------------------------------------------------
  free energy    TOTEN  =      -186.82831029 eV

  energy without entropy =     -186.48318977  energy(sigma->0) =     -186.65575003


--------------------------------------------------------------------------------------------------------




----------------------------------------- Iteration    1(  17)  ---------------------------------------


    POTLOK:  cpu time    0.0367: real time    0.0368
    SETDIJ:  cpu time    0.0024: real time    0.0024
     EDDAV:  cpu time   31.4142: real time   31.4898
       DOS:  cpu time    0.0011: real time    0.0011
    CHARGE:  cpu time    0.5456: real time    0.5470
    MIXING:  cpu time    0.0021: real time    0.0021
    --------------------------------------------
      LOOP:  cpu time   32.0034: real time   32.0881

 eigenvalue-minimisations  : 10880
 total energy-change (2. order) : 0.6758258E-03  (-0.1233514E-02)
 number of electron     159.0000089 magnetization 
 augmentation part       -4.1814581 magnetization 

 Broyden mixing:
  rms(total) = 0.14453E-01    rms(broyden)= 0.14437E-01
  rms(prec ) = 0.18105E-01
  weight for this iteration     100.00

 eigenvalues of (default mixing * dielectric matrix)
  average eigenvalue GAMMA=   0.8383
  2.3568  2.3568  1.2755  1.2755  0.8339  0.4803  0.4150  0.3169  0.2498  0.2578
  0.1249  0.1166

 Free energy of the ion-electron system (eV)
  ---------------------------------------------------
  alpha Z        PSCENC =        81.65567618
  Ewald energy   TEWEN  =     41891.19377234
  -Hartree energ DENC   =    -47812.99515603
  -exchange      EXHF   =         0.00000000
  -V(xc)+E(xc)   XCENC  =      -231.75344747
  PAW double counting   =      4194.67967270    -3612.74496409
  entropy T*S    EENTRO =        -0.34573513
  eigenvalues    EBANDS =     -1457.95997723
  atomic energy  EATOM  =      6761.44252427
  Solvation  Ediel_sol  =         0.00000000
  ---------------------------------------------------
  free energy    TOTEN  =      -186.82763447 eV

  energy without entropy =     -186.48189934  energy(sigma->0) =     -186.65476690


--------------------------------------------------------------------------------------------------------




----------------------------------------- Iteration    1(  18)  ---------------------------------------


    POTLOK:  cpu time    0.0360: real time    0.0361
    SETDIJ:  cpu time    0.0025: real time    0.0025
     EDDAV:  cpu time   29.0298: real time   29.0992
       DOS:  cpu time    0.0011: real time    0.0011
    CHARGE:  cpu time    0.5432: real time    0.5445
    MIXING:  cpu time    0.0023: real time    0.0024
    --------------------------------------------
      LOOP:  cpu time   29.6159: real time   29.6938

 eigenvalue-minimisations  :  9888
 total energy-change (2. order) : 0.4941250E-03  (-0.4519463E-03)
 number of electron     159.0000089 magnetization 
 augmentation part       -4.1743937 magnetization 

 Broyden mixing:
  rms(total) = 0.12321E-01    rms(broyden)= 0.12315E-01
  rms(prec ) = 0.15042E-01
  weight for this iteration     100.00

 eigenvalues of (default mixing * dielectric matrix)
  average eigenvalue GAMMA=   0.8648
  2.5374  2.5374  1.4108  1.0328  1.0328  0.7588  0.4799  0.3873  0.3168  0.2498
  0.2577  0.1249  0.1166

 Free energy of the ion-electron system (eV)
  ---------------------------------------------------
  alpha Z        PSCENC =        81.65567618
  Ewald energy   TEWEN  =     41891.19377234
  -Hartree energ DENC   =    -47817.32255253
  -exchange      EXHF   =         0.00000000
  -V(xc)+E(xc)   XCENC  =      -231.70982391
  PAW double counting   =      4193.86040183    -3611.88207619
  entropy T*S    EENTRO =        -0.34574478
  eigenvalues    EBANDS =     -1453.71931756
  atomic energy  EATOM  =      6761.44252427
  Solvation  Ediel_sol  =         0.00000000
  ---------------------------------------------------
  free energy    TOTEN  =      -186.82714034 eV

  energy without entropy =     -186.48139557  energy(sigma->0) =     -186.65426795


--------------------------------------------------------------------------------------------------------




----------------------------------------- Iteration    1(  19)  ---------------------------------------


    POTLOK:  cpu time    0.0362: real time    0.0365
    SETDIJ:  cpu time    0.0024: real time    0.0024
     EDDAV:  cpu time   29.1904: real time   29.2602
       DOS:  cpu time    0.0011: real time    0.0011
    CHARGE:  cpu time    0.5454: real time    0.5467
    MIXING:  cpu time    0.0020: real time    0.0020
    --------------------------------------------
      LOOP:  cpu time   29.7787: real time   29.8567

 eigenvalue-minimisations  :  9984
 total energy-change (2. order) : 0.1665256E-04  (-0.3720284E-03)
 number of electron     159.0000089 magnetization 
 augmentation part       -4.2027067 magnetization 

 Broyden mixing:
  rms(total) = 0.82497E-02    rms(broyden)= 0.82420E-02
  rms(prec ) = 0.10091E-01
  weight for this iteration     100.00

 eigenvalues of (default mixing * dielectric matrix)
  average eigenvalue GAMMA=   0.9341
  2.5214  2.5214  1.9258  1.4568  0.9973  0.9973  0.7240  0.4791  0.3893  0.3167
  0.2498  0.2577  0.1249  0.1166

 Free energy of the ion-electron system (eV)
  ---------------------------------------------------
  alpha Z        PSCENC =        81.65567618
  Ewald energy   TEWEN  =     41891.19377234
  -Hartree energ DENC   =    -47821.62742209
  -exchange      EXHF   =         0.00000000
  -V(xc)+E(xc)   XCENC  =      -231.66929416
  PAW double counting   =      4194.07861869    -3612.08146085
  entropy T*S    EENTRO =        -0.34501405
  eigenvalues    EBANDS =     -1449.47452403
  atomic energy  EATOM  =      6761.44252427
  Solvation  Ediel_sol  =         0.00000000
  ---------------------------------------------------
  free energy    TOTEN  =      -186.82712369 eV

  energy without entropy =     -186.48210964  energy(sigma->0) =     -186.65461666


--------------------------------------------------------------------------------------------------------




----------------------------------------- Iteration    1(  20)  ---------------------------------------


    POTLOK:  cpu time    0.0354: real time    0.0355
    SETDIJ:  cpu time    0.0023: real time    0.0023
     EDDAV:  cpu time   28.7904: real time   28.8592
       DOS:  cpu time    0.0012: real time    0.0012
    CHARGE:  cpu time    0.5427: real time    0.5440
    MIXING:  cpu time    0.0025: real time    0.0025
    --------------------------------------------
      LOOP:  cpu time   29.3761: real time   29.4515

 eigenvalue-minimisations  :  9792
 total energy-change (2. order) :-0.1246549E-02  (-0.2306982E-03)
 number of electron     159.0000089 magnetization 
 augmentation part       -4.1799517 magnetization 

 Broyden mixing:
  rms(total) = 0.78114E-02    rms(broyden)= 0.78068E-02
  rms(prec ) = 0.90911E-02
  weight for this iteration     100.00

 eigenvalues of (default mixing * dielectric matrix)
  average eigenvalue GAMMA=   0.9748
  3.1357  2.6304  2.1277  1.5158  1.0151  1.0151  0.7469  0.4758  0.5016  0.3915
  0.3167  0.2498  0.2577  0.1249  0.1166

 Free energy of the ion-electron system (eV)
  ---------------------------------------------------
  alpha Z        PSCENC =        81.65567618
  Ewald energy   TEWEN  =     41891.19377234
  -Hartree energ DENC   =    -47826.16087194
  -exchange      EXHF   =         0.00000000
  -V(xc)+E(xc)   XCENC  =      -231.63518673
  PAW double counting   =      4192.75480203    -3610.75753981
  entropy T*S    EENTRO =        -0.34535632
  eigenvalues    EBANDS =     -1444.97619026
  atomic energy  EATOM  =      6761.44252427
  Solvation  Ediel_sol  =         0.00000000
  ---------------------------------------------------
  free energy    TOTEN  =      -186.82837024 eV

  energy without entropy =     -186.48301392  energy(sigma->0) =     -186.65569208


--------------------------------------------------------------------------------------------------------




----------------------------------------- Iteration    1(  21)  ---------------------------------------


    POTLOK:  cpu time    0.0364: real time    0.0365
    SETDIJ:  cpu time    0.0025: real time    0.0025
     EDDAV:  cpu time   22.2174: real time   22.2709
       DOS:  cpu time    0.0011: real time    0.0011
    CHARGE:  cpu time    0.5446: real time    0.5460
    MIXING:  cpu time    0.0023: real time    0.0023
    --------------------------------------------
      LOOP:  cpu time   22.8053: real time   22.8669

 eigenvalue-minimisations  :  7072
 total energy-change (2. order) :-0.7201870E-03  (-0.8151165E-04)
 number of electron     159.0000089 magnetization 
 augmentation part       -4.1846865 magnetization 

 Broyden mixing:
  rms(total) = 0.57563E-02    rms(broyden)= 0.57521E-02
  rms(prec ) = 0.66964E-02
  weight for this iteration     100.00

 eigenvalues of (default mixing * dielectric matrix)
  average eigenvalue GAMMA=   0.9952
  3.9496  2.5251  2.1099  1.5745  1.0547  1.0547  0.7866  0.6577  0.4787  0.3916
  0.3167  0.1166  0.1249  0.2498  0.2577  0.2752

 Free energy of the ion-electron system (eV)
  ---------------------------------------------------
  alpha Z        PSCENC =        81.65567618
  Ewald energy   TEWEN  =     41891.19377234
  -Hartree energ DENC   =    -47828.69688667
  -exchange      EXHF   =         0.00000000
  -V(xc)+E(xc)   XCENC  =      -231.62027223
  PAW double counting   =      4192.16839749    -3610.16741372
  entropy T*S    EENTRO =        -0.34521915
  eigenvalues    EBANDS =     -1442.45966894
  atomic energy  EATOM  =      6761.44252427
  Solvation  Ediel_sol  =         0.00000000
  ---------------------------------------------------
  free energy    TOTEN  =      -186.82909043 eV

  energy without entropy =     -186.48387127  energy(sigma->0) =     -186.65648085


--------------------------------------------------------------------------------------------------------




----------------------------------------- Iteration    1(  22)  ---------------------------------------


    POTLOK:  cpu time    0.0370: real time    0.0371
    SETDIJ:  cpu time    0.0024: real time    0.0024
     EDDAV:  cpu time   20.5578: real time   20.6072
       DOS:  cpu time    0.0011: real time    0.0011
    CHARGE:  cpu time    0.5421: real time    0.5434
    MIXING:  cpu time    0.0023: real time    0.0023
    --------------------------------------------
      LOOP:  cpu time   21.1441: real time   21.2030

 eigenvalue-minimisations  :  6368
 total energy-change (2. order) :-0.4923899E-03  (-0.4640420E-04)
 number of electron     159.0000089 magnetization 
 augmentation part       -4.1919301 magnetization 

 Broyden mixing:
  rms(total) = 0.14402E-02    rms(broyden)= 0.14323E-02
  rms(prec ) = 0.20194E-02
  weight for this iteration     100.00

 eigenvalues of (default mixing * dielectric matrix)
  average eigenvalue GAMMA=   1.0748
  4.5316  2.5029  2.5029  1.4708  1.4708  1.0326  1.0326  0.8345  0.6878  0.4788
  0.3901  0.3167  0.1166  0.1249  0.2498  0.2577  0.2709

 Free energy of the ion-electron system (eV)
  ---------------------------------------------------
  alpha Z        PSCENC =        81.65567618
  Ewald energy   TEWEN  =     41891.19377234
  -Hartree energ DENC   =    -47830.28319526
[...]
     56      -6.0524      2.00000
     57      -5.9788      2.00000
     58      -5.9205      2.00000
     59      -5.8798      2.00000
     60      -5.7178      2.00000
     61      -5.7040      2.00000
     62      -5.5296      2.00000
     63      -5.5151      2.00000
     64      -5.4699      2.00000
     65      -5.2088      2.00000
     66      -5.0698      2.00000
     67      -5.0635      2.00000
     68      -4.8962      2.00000
     69      -4.7720      2.00000
     70      -4.6809      2.00000
     71      -4.6507      2.00000
     72      -4.4821      2.00000
     73      -4.2811      2.00000
     74      -4.1689      2.00000
     75      -4.0557      2.00000
     76      -4.0357      2.00000
     77      -3.8915      2.00000
     78      -3.8070      1.99994
     79      -3.4386      1.83627
     80      -3.4370      1.83294
     81      -3.0083      0.09892
     82      -2.9432      0.03482
     83      -2.6610      0.00004
     84      -2.6002      0.00001
     85      -2.5599      0.00000
     86      -2.4853      0.00000
     87      -2.2059      0.00000
     88      -2.1647      0.00000
     89      -2.0423      0.00000
     90      -1.9233      0.00000
     91      -1.9138      0.00000
     92      -1.5741      0.00000
     93      -1.2200      0.00000
     94      -1.2192      0.00000
     95      -1.1964      0.00000
     96      -1.0173      0.00000

 k-point    34 :       0.5000    0.5000    0.0000
  band No.  band energies     occupation 
      1     -17.4268      2.00000
      2     -17.4267      2.00000
      3     -16.7146      2.00000
      4     -16.7145      2.00000
      5     -16.5651      2.00000
      6     -16.5650      2.00000
      7     -16.2160      2.00000
      8     -16.1899      2.00000
      9     -16.1721      2.00000
     10     -16.1719      2.00000
     11     -15.7929      2.00000
     12     -15.7532      2.00000
     13     -15.7531      2.00000
     14     -15.6850      2.00000
     15     -15.5001      2.00000
     16     -15.5000      2.00000
     17     -15.4537      2.00000
     18     -15.2664      2.00000
     19      -9.8273      2.00000
     20      -9.3999      2.00000
     21      -9.1913      2.00000
     22      -9.1913      2.00000
     23      -8.7676      2.00000
     24      -8.7676      2.00000
     25      -8.7490      2.00000
     26      -8.5577      2.00000
     27      -8.5576      2.00000
     28      -8.3743      2.00000
     29      -8.1577      2.00000
     30      -8.0813      2.00000
     31      -8.0789      2.00000
     32      -8.0789      2.00000
     33      -7.7873      2.00000
     34      -7.7870      2.00000
     35      -7.7256      2.00000
     36      -7.7093      2.00000
     37      -7.7092      2.00000
     38      -7.5205      2.00000
     39      -7.5205      2.00000
     40      -7.4294      2.00000
     41      -7.0390      2.00000
     42      -7.0103      2.00000
     43      -7.0102      2.00000
     44      -6.8529      2.00000
     45      -6.7463      2.00000
     46      -6.7463      2.00000
     47      -6.6415      2.00000
     48      -6.5701      2.00000
     49      -6.5700      2.00000
     50      -6.5634      2.00000
     51      -6.3609      2.00000
     52      -6.3106      2.00000
     53      -6.3105      2.00000
     54      -6.2613      2.00000
     55      -6.0800      2.00000
     56      -6.0800      2.00000
     57      -5.9815      2.00000
     58      -5.8629      2.00000
     59      -5.8629      2.00000
     60      -5.7285      2.00000
     61      -5.7284      2.00000
     62      -5.5622      2.00000
     63      -5.5622      2.00000
     64      -5.4491      2.00000
     65      -5.2061      2.00000
     66      -5.0632      2.00000
     67      -5.0006      2.00000
     68      -5.0006      2.00000
     69      -4.7530      2.00000
     70      -4.5586      2.00000
     71      -4.5584      2.00000
     72      -4.5082      2.00000
     73      -4.2550      2.00000
     74      -4.2549      2.00000
     75      -4.0543      2.00000
     76      -4.0540      2.00000
     77      -3.8589      1.99999
     78      -3.8588      1.99999
     79      -3.4429      1.84529
     80      -3.4423      1.84402
     81      -2.9845      0.06908
     82      -2.9844      0.06898
     83      -2.6378      0.00002
     84      -2.6377      0.00002
     85      -2.5654      0.00000
     86      -2.4660      0.00000
     87      -2.1626      0.00000
     88      -2.1624      0.00000
     89      -2.0458      0.00000
     90      -1.9110      0.00000
     91      -1.9109      0.00000
     92      -1.5843      0.00000
     93      -1.1826      0.00000
     94      -1.1741      0.00000
     95      -1.1739      0.00000
     96      -1.0849      0.00000


--------------------------------------------------------------------------------------------------------


 soft charge-density along one line, spin component           1
         0         1         2         3         4         5         6         7         8         9
 total charge-density along one line
 
 pseudopotential strength for first ion, spin component:           1
 -7.255  -0.011  -0.012  -0.005   0.001   0.685   0.002   0.004
 -0.011  -7.159  -0.005   0.010   0.005   0.002   0.656   0.001
 -0.012  -0.005  -7.121  -0.003   0.007   0.004   0.001   0.646
 -0.005   0.010  -0.003  -7.170   0.005   0.001  -0.003   0.001
  0.001   0.005   0.007   0.005  -7.255  -0.000  -0.001  -0.002
  0.685   0.002   0.004   0.001  -0.000   0.330  -0.000  -0.001
  0.002   0.656   0.001  -0.003  -0.001  -0.000   0.339  -0.000
  0.004   0.001   0.646   0.001  -0.002  -0.001  -0.000   0.341
  0.001  -0.003   0.001   0.659  -0.000  -0.000   0.001  -0.000
 -0.000  -0.001  -0.002  -0.000   0.685   0.000   0.000   0.001
 -0.004   0.002  -0.020   0.001   0.002   0.001  -0.000   0.005
 -0.001   0.001  -0.007   0.000   0.001   0.000  -0.000   0.002
  0.003   0.003  -0.001   0.003  -0.006   0.000  -0.001  -0.001
  0.003   0.009   0.000   0.005  -0.002  -0.000  -0.000  -0.000
  0.006   0.003  -0.001  -0.001   0.003   0.001  -0.000  -0.001
  0.002   0.002   0.000   0.003  -0.003  -0.000  -0.000  -0.000
  0.003   0.007  -0.000   0.004  -0.002  -0.001  -0.001   0.000
  0.003   0.003   0.000  -0.002   0.002  -0.000  -0.001  -0.000
 total augmentation occupancy for first ion, spin component:           1
  0.807   0.155  -0.027  -0.004   0.019   0.432   0.219  -0.004   0.005   0.008   0.011  -0.002  -0.006   0.073  -0.011  -0.001
  0.155   1.077   0.028  -0.010   0.004   0.216   0.641   0.041  -0.014  -0.005   0.008   0.003   0.056   0.077   0.072   0.002
 -0.027   0.028   0.833   0.016   0.016  -0.003   0.041   0.336   0.024   0.002   0.153   0.005   0.072  -0.006   0.041   0.002
 -0.004  -0.010   0.016   1.088  -0.160   0.005  -0.014   0.023   0.657  -0.211   0.004   0.002   0.072   0.044  -0.027   0.002
  0.019   0.004   0.016  -0.160   0.828   0.008  -0.005   0.002  -0.213   0.441  -0.006   0.001   0.011  -0.042  -0.007   0.003
  0.432   0.216  -0.003   0.005   0.008   0.368   0.221   0.005   0.004  -0.005  -0.019  -0.002   0.021   0.071   0.029   0.000
  0.219   0.641   0.041  -0.014  -0.005   0.221   0.575   0.026  -0.006  -0.004   0.033   0.005   0.045   0.090   0.068   0.004
 -0.004   0.041   0.336   0.023   0.002   0.005   0.026   0.269   0.015  -0.003   0.043   0.010   0.016   0.003   0.009   0.004
  0.005  -0.014   0.024   0.657  -0.213   0.004  -0.006   0.015   0.582  -0.216   0.019   0.003   0.068   0.052  -0.033   0.005
  0.008  -0.005   0.002  -0.211   0.441  -0.005  -0.004  -0.003  -0.216   0.363   0.011   0.001  -0.029  -0.041   0.013   0.000
  0.011   0.008   0.153   0.004  -0.006  -0.019   0.033   0.043   0.019   0.011   1.407   0.137   0.045   0.016   0.026   0.002
 -0.002   0.003   0.005   0.002   0.001  -0.002   0.005   0.010   0.003   0.001   0.137   0.026   0.009   0.000   0.005   0.001
 -0.006   0.056   0.072   0.072   0.011   0.021   0.045   0.016   0.068  -0.029   0.045   0.009   0.357   0.005   0.001   0.026
  0.073   0.077  -0.006   0.044  -0.042   0.071   0.090   0.003   0.052  -0.041   0.016   0.000   0.005   0.425   0.003  -0.000
 -0.011   0.072   0.041  -0.027  -0.007   0.029   0.068   0.009  -0.033   0.013   0.026   0.005   0.001   0.003   0.356  -0.000
 -0.001   0.002   0.002   0.002   0.003   0.000   0.004   0.004   0.005   0.000   0.002   0.001   0.026  -0.000  -0.000   0.003
  0.003  -0.001   0.000  -0.001  -0.002   0.005   0.005  -0.000   0.003  -0.003   0.000   0.000  -0.000   0.028  -0.000   0.000
 -0.003   0.002   0.001  -0.001  -0.002  -0.000   0.005   0.002  -0.002  -0.001   0.001   0.000  -0.000  -0.000   0.027  -0.000


------------------------ aborting loop because EDIFF is reached ----------------------------------------


    CHARGE:  cpu time    0.5403: real time    0.5416
    FORLOC:  cpu time    0.0078: real time    0.0078
    FORNL :  cpu time    5.2222: real time    5.2347
    STRESS:  cpu time   31.9501: real time   32.0265
    FORCOR:  cpu time    0.0404: real time    0.0407
    FORHAR:  cpu time    0.0151: real time    0.0151
    MIXING:  cpu time    0.0015: real time    0.0015
    OFIELD:  cpu time    0.0000: real time    0.0000

  FORCE on cell =-STRESS in cart. coord.  units (eV):
  Direction    XX          YY          ZZ          XY          YZ          ZX
  --------------------------------------------------------------------------------------
  Alpha Z    89.51932    89.51932    89.51932
  Ewald   49356.46774 49305.63227-54269.77159   -43.95293    19.25847    11.04707
  Hartree 50061.00492 50029.44491-49690.66617   -27.30499    11.47426     6.60953
  E(xc)    -609.69392  -610.73903  -617.76360    -0.90701    -0.94533    -0.54489
  Local  ************************101398.45370    64.10031   -39.59706   -22.77118
  n-local  1213.99038  1216.13425  1248.52023     1.89443    -2.77051    -1.61094
  augment  -213.32339  -213.00134  -214.82182     0.26854     0.51062     0.30046
  Kinetic  2008.55459  2015.36271  2054.61641     5.90893    11.83429     6.83453
  Fock        0.00000     0.00000     0.00000     0.00000     0.00000     0.00000
  -------------------------------------------------------------------------------------
  Total       0.04009     0.04836    -1.91353     0.00727    -0.23527    -0.13541
  in kB       0.02686     0.03240    -1.28196     0.00487    -0.15762    -0.09072
  external pressure =       -0.41 kB  Pullay stress =        0.00 kB


 VOLUME and BASIS-vectors are now :
 -----------------------------------------------------------------------------
  energy-cutoff  :      280.00
  volume of cell :     2391.50
      direct lattice vectors                 reciprocal lattice vectors
     8.308528379  4.828756158  0.000000000     0.059982761  0.103884211  0.000000000
    -8.281305141  4.781626987  0.000000000    -0.060573970  0.104225711  0.000000000
     0.000000000  0.000000000 30.000000000     0.000000000  0.000000000  0.033333333

  length of vectors
     9.609814247  9.562634129 30.000000000     0.119957747  0.120549594  0.033333333


 FORCES acting on ions
    electron-ion (+dipol)            ewald-force                    non-local-force                 convergence-correction
 -----------------------------------------------------------------------------------------------
   0.119E+02 0.206E+02 0.102E+02   -.126E+02 -.219E+02 -.100E+02   0.764E+00 0.132E+01 -.196E+00   0.568E-02 0.110E-01 -.941E-02
   0.119E+02 0.206E+02 0.102E+02   -.126E+02 -.219E+02 -.100E+02   0.764E+00 0.132E+01 -.196E+00   0.665E-02 0.105E-01 -.934E-02
   0.119E+02 0.206E+02 0.102E+02   -.126E+02 -.219E+02 -.100E+02   0.764E+00 0.132E+01 -.196E+00   0.534E-02 0.907E-02 -.986E-02
   0.703E+01 0.122E+02 0.819E+01   -.689E+01 -.120E+02 -.827E+01   -.128E+00 -.223E+00 0.905E-01   -.111E-01 -.160E-01 -.110E-02
   0.705E+01 0.122E+02 0.819E+01   -.691E+01 -.120E+02 -.827E+01   -.128E+00 -.222E+00 0.907E-01   -.957E-02 -.164E-01 -.121E-02
   0.708E+01 0.122E+02 0.819E+01   -.694E+01 -.120E+02 -.827E+01   -.129E+00 -.222E+00 0.905E-01   -.824E-02 -.177E-01 -.112E-02
   -.177E+02 -.306E+02 -.199E+02   0.181E+02 0.313E+02 0.196E+02   -.410E+00 -.709E+00 0.337E+00   -.220E-02 -.381E-02 0.119E-02
   -.177E+02 -.306E+02 -.199E+02   0.181E+02 0.313E+02 0.195E+02   -.410E+00 -.709E+00 0.337E+00   -.424E-02 -.454E-02 0.866E-03
   -.177E+02 -.306E+02 -.199E+02   0.181E+02 0.313E+02 0.195E+02   -.409E+00 -.709E+00 0.337E+00   -.186E-02 -.602E-02 0.844E-03
   0.121E+02 0.209E+02 0.586E+03   -.126E+02 -.218E+02 -.589E+03   0.567E+00 0.983E+00 0.317E+01   0.203E-02 0.378E-02 0.196E-01
   0.935E+01 0.162E+02 -.589E+03   -.104E+02 -.180E+02 0.592E+03   0.100E+01 0.174E+01 -.306E+01   -.379E-02 -.198E-02 -.161E-01
   0.121E+02 0.209E+02 0.586E+03   -.126E+02 -.218E+02 -.589E+03   0.566E+00 0.983E+00 0.317E+01   0.313E-03 0.124E-02 0.189E-01
   0.935E+01 0.162E+02 -.589E+03   -.104E+02 -.179E+02 0.592E+03   0.100E+01 0.174E+01 -.306E+01   0.275E-04 -.436E-02 -.164E-01
   0.120E+02 0.209E+02 0.586E+03   -.126E+02 -.218E+02 -.589E+03   0.568E+00 0.983E+00 0.317E+01   0.104E-02 0.804E-03 0.187E-01
   0.935E+01 0.162E+02 -.589E+03   -.104E+02 -.179E+02 0.592E+03   0.100E+01 0.174E+01 -.306E+01   -.299E-02 -.535E-02 -.151E-01
   -.372E+01 -.644E+01 0.623E+03   0.425E+01 0.735E+01 -.627E+03   -.512E+00 -.885E+00 0.360E+01   -.114E-01 -.143E-01 -.863E-03
   -.110E+02 -.191E+02 -.627E+03   0.113E+02 0.196E+02 0.631E+03   -.267E+00 -.461E+00 -.398E+01   -.527E-02 -.791E-02 0.356E-02
   -.372E+01 -.644E+01 0.623E+03   0.425E+01 0.735E+01 -.627E+03   -.511E+00 -.886E+00 0.360E+01   -.686E-02 -.171E-01 -.868E-03
   -.110E+02 -.191E+02 -.627E+03   0.113E+02 0.196E+02 0.631E+03   -.267E+00 -.462E+00 -.398E+01   -.593E-02 -.103E-01 0.158E-02
   -.371E+01 -.643E+01 0.623E+03   0.424E+01 0.734E+01 -.627E+03   -.512E+00 -.886E+00 0.360E+01   -.845E-02 -.148E-01 -.305E-02
   -.110E+02 -.191E+02 -.627E+03   0.113E+02 0.196E+02 0.631E+03   -.267E+00 -.462E+00 -.398E+01   -.426E-02 -.859E-02 0.353E-02
   -.967E+01 -.167E+02 0.499E+03   0.985E+01 0.170E+02 -.504E+03   -.191E+00 -.332E+00 0.512E+01   0.825E-02 0.148E-01 -.682E-02
   0.142E+01 0.243E+01 -.490E+03   -.985E+00 -.169E+01 0.495E+03   -.434E+00 -.752E+00 -.476E+01   0.954E-02 0.168E-01 -.457E-02
   -.967E+01 -.167E+02 0.499E+03   0.985E+01 0.171E+02 -.504E+03   -.191E+00 -.332E+00 0.512E+01   0.842E-02 0.145E-01 -.639E-02
   0.141E+01 0.242E+01 -.490E+03   -.980E+00 -.168E+01 0.495E+03   -.434E+00 -.752E+00 -.477E+01   0.894E-02 0.167E-01 -.506E-02
   -.967E+01 -.167E+02 0.499E+03   0.985E+01 0.170E+02 -.504E+03   -.191E+00 -.331E+00 0.512E+01   0.861E-02 0.145E-01 -.691E-02
   0.140E+01 0.243E+01 -.490E+03   -.974E+00 -.168E+01 0.495E+03   -.434E+00 -.752E+00 -.477E+01   0.101E-01 0.159E-01 -.497E-02
 -----------------------------------------------------------------------------------------------
   -.116E+01 -.202E+01 -.910E+00   -.479E-13 0.930E-13 0.398E-12   0.118E+01 0.204E+01 0.946E+00   -.113E-01 -.195E-01 -.504E-01
 
 
 POSITION                                       TOTAL-FORCE (eV/Angst)
 -----------------------------------------------------------------------------------
      0.14715      0.25449     -0.04102         0.000988      0.001523     -0.035477
      5.69530      6.67705     -0.04099         0.000804      0.001743     -0.035479
     -5.37375      3.44216     -0.04101         0.001463      0.002446     -0.035010
      2.80932      1.67825     -0.02408        -0.000181     -0.000711      0.007116
      0.04902      3.27201     -0.02409        -0.000091     -0.000134      0.007330
     -2.71122      4.86582     -0.02407        -0.000545     -0.000592      0.007106
      5.38142      2.94547      0.06250        -0.001167     -0.001940      0.027865
      2.62098      4.53941      0.06246        -0.000967     -0.002029      0.028031
     -0.13947      6.13329      0.06247        -0.001197     -0.001860      0.028020
     -0.92068      1.59225     28.41059         0.007547      0.013181     -0.035238
      0.92455      1.60102      1.57335        -0.010821     -0.018579     -0.005649
     -3.68106      3.18610     28.41059         0.007715      0.013009     -0.034811
     -1.83585      3.19487      1.57337        -0.010636     -0.018643     -0.005641
     -6.44157      4.78004     28.41056         0.007384      0.013192     -0.034765
     -4.59628      4.78882      1.57331        -0.010937     -0.019010     -0.006413
      1.83548      3.17869     28.31897         0.007194      0.012699      0.013702
      3.67592      3.17913      1.72079        -0.007702     -0.013413      0.025485
     -0.92492      4.77255     28.31897         0.007380      0.012555      0.013714
      0.91552      4.77304      1.72080        -0.007806     -0.013564      0.025147
     -3.68539      6.36637     28.31909         0.007247      0.012536      0.013864
     -1.84492      6.36684      1.72082        -0.007723     -0.013357      0.025386
      4.62858      4.82913     28.68730        -0.002684     -0.004709      0.012824
      6.47085      4.83259      1.29161         0.006668      0.011707     -0.010742
      1.86813      6.42303     28.68726        -0.002749     -0.004838      0.012501
      3.71041      6.42649      1.29160         0.006794      0.011739     -0.010854
     -0.89231      8.01691     28.68727        -0.002765     -0.004708      0.012852
      0.94994      8.02039      1.29160         0.006787      0.011758     -0.010862
 -----------------------------------------------------------------------------------
    total drift:                                0.001516      0.002162     -0.014369


--------------------------------------------------------------------------------------------------------



  FREE ENERGIE OF THE ION-ELECTRON SYSTEM (eV)
  ---------------------------------------------------
  free  energy   TOTEN  =      -192.43786490 eV

  energy  without entropy=     -192.29552249  energy(sigma->0) =     -192.36669369
 
 d Force = 0.2792627E-03[ 0.249E-03, 0.309E-03]  d Energy = 0.2618077E-03 0.175E-04
 d Force =-0.5627879E-01[-0.560E-01,-0.566E-01]  d Ewald  =-0.7855255E+01 0.780E+01


--------------------------------------------------------------------------------------------------------


    POTLOK:  cpu time    0.0395: real time    0.0396


--------------------------------------------------------------------------------------------------------


 Quasi-Newton relaxation of ions (Broydens 2nd method)
  g(Force)  = 0.843E-03   g(Stress)= 0.724E-05

 retain information from N=  2 steps
 eigenvalues of (default step * inverse Hessian matrix)
  average eigenvalue of G=   4.0681
 eigenvalue spectrum of G is  4.0681  4.0681


--------------------------------------------------------------------------------------------------------


  
 reached required accuracy - stopping structural energy minimisation
     LOOP+:  cpu time  132.6661: real time  132.9989
    4ORBIT:  cpu time    0.0000: real time    0.0000

 total amount of memory used by VASP on root node   652136. kBytes
========================================================================

   base      :      30000. kBytes
   nonl-proj :     559807. kBytes
   fftplans  :       2791. kBytes
   grid      :      12953. kBytes
   one-center:        419. kBytes
   wavefun   :      46166. kBytes
 
  
  
 General timing and accounting informations for this job:
 ========================================================
  
                  Total CPU time used (sec):     6472.944
                            User time (sec):     6464.796
                          System time (sec):        8.148
                         Elapsed time (sec):     6491.398
  
                   Maximum memory used (kb):      797436.
                   Average memory used (kb):           0.
  
                          Minor page faults:      1122961
                          Major page faults:            4
                 Voluntary context switches:         4244
