   27   27  100    1
  0.9710400E+02  0.1002848E-08  0.1002848E-08  0.3000000E-08  0.5000000E-15
  1.000000000000000E-004
  CAR 
 unknown system                          
    159     34     96
 
  0.0000000E+00  0.0000000E+00  0.0000000E+00  0.1562500E-01
    1      -17.828084   1.000000
    2      -16.768405   1.000000
    3      -16.575739   1.000000
    4      -16.575734   1.000000
    5      -16.498332   1.000000
    6      -16.410535   1.000000
    7      -16.410499   1.000000
    8      -16.404896   1.000000
    9      -16.205077   1.000000
   10      -16.205071   1.000000
   11      -16.050963   1.000000
   12      -15.907555   1.000000
   13      -15.907465   1.000000
   14      -15.618289   1.000000
   15      -15.543483   1.000000
   16      -15.543448   1.000000
   17      -15.249370   1.000000
   18      -15.249331   1.000000
   19       -9.367054   1.000000
   20       -9.141699   1.000000
   21       -8.901353   1.000000
   22       -8.901306   1.000000
   23       -8.757338   1.000000
   24       -8.757298   1.000000
   25       -8.579425   1.000000
   26       -8.579329   1.000000
   27       -8.557623   1.000000
   28       -8.428563   1.000000
   29       -8.428513   1.000000
   30       -8.265070   1.000000
   31       -8.245870   1.000000
   32       -8.245642   1.000000
   33       -8.098354   1.000000
   34       -8.098283   1.000000
   35       -7.721272   1.000000
   36       -7.721204   1.000000
   37       -7.717609   1.000000
   38       -7.519196   1.000000
   39       -7.519087   1.000000
   40       -7.403559   1.000000
   41       -7.232568   1.000000
   42       -7.232557   1.000000
   43       -7.042749   1.000000
   44       -6.894548   1.000000
   45       -6.894411   1.000000
   46       -6.881501   1.000000
   47       -6.711709   1.000000
   48       -6.678149   1.000000
   49       -6.678039   1.000000
   50       -6.521575   1.000000
   51       -6.521562   1.000000
   52       -6.194097   1.000000
   53       -6.186460   1.000000
   54       -6.186418   1.000000
   55       -6.144804   1.000000
   56       -6.030750   1.000000
   57       -5.951254   1.000000
   58       -5.951189   1.000000
   59       -5.820649   1.000000
   60       -5.820586   1.000000
   61       -5.661768   1.000000
   62       -5.318686   1.000000
   63       -5.318638   1.000000
   64       -5.007420   1.000000
   65       -5.007294   1.000000
   66       -4.962365   1.000000
   67       -4.743236   1.000000
   68       -4.743233   1.000000
   69       -4.691927   1.000000
   70       -4.691177   1.000000
   71       -4.655456   1.000000
   72       -4.655258   1.000000
   73       -4.589335   1.000000
   74       -4.391683   1.000000
   75       -4.391538   1.000000
   76       -4.095816   1.000000
   77       -3.789863   0.999947
   78       -3.715828   0.999601
   79       -3.430036   0.908619
   80       -3.157411   0.275770
   81       -3.148029   0.254051
   82       -2.833702   0.001961
   83       -2.833560   0.001954
   84       -2.477602   0.000000
   85       -2.477390   0.000000
   86       -2.407023   0.000000
   87       -2.406132   0.000000
   88       -2.282314   0.000000
   89       -2.216668   0.000000
   90       -2.037821   0.000000
   91       -2.037675   0.000000
   92       -1.530820   0.000000
   93       -1.530651   0.000000
   94       -1.073533   0.000000
   95       -1.040918   0.000000
   96       -1.040858   0.000000
 
  0.1250000E+00  0.2775558E-16  0.0000000E+00  0.3125000E-01
    1      -17.804473   1.000000
    2      -16.806031   1.000000
    3      -16.618088   1.000000
    4      -16.608492   1.000000
    5      -16.608384   1.000000
    6      -16.382377   1.000000
    7      -16.382271   1.000000
    8      -16.332462   1.000000
    9      -16.191664   1.000000
   10      -16.191615   1.000000
   11      -15.983442   1.000000
   12      -15.895822   1.000000
   13      -15.895715   1.000000
   14      -15.613901   1.000000
   15      -15.561064   1.000000
   16      -15.560990   1.000000
   17      -15.252455   1.000000
   18      -15.252406   1.000000
   19       -9.414598   1.000000
   20       -9.160031   1.000000
   21       -8.994147   1.000000
   22       -8.994041   1.000000
   23       -8.806484   1.000000
   24       -8.806393   1.000000
   25       -8.677004   1.000000
   26       -8.536668   1.000000
   27       -8.536602   1.000000
   28       -8.408402   1.000000
   29       -8.408388   1.000000
   30       -8.204157   1.000000
   31       -8.203995   1.000000
   32       -8.054019   1.000000
   33       -8.017429   1.000000
   34       -8.017268   1.000000
   35       -7.691847   1.000000
   36       -7.673518   1.000000
   37       -7.673367   1.000000
   38       -7.534736   1.000000
   39       -7.534595   1.000000
   40       -7.479739   1.000000
   41       -7.215686   1.000000
   42       -7.215533   1.000000
   43       -7.046010   1.000000
   44       -6.992281   1.000000
   45       -6.992118   1.000000
   46       -6.888331   1.000000
   47       -6.703350   1.000000
   48       -6.612414   1.000000
   49       -6.612198   1.000000
   50       -6.480789   1.000000
   51       -6.480742   1.000000
   52       -6.319711   1.000000
   53       -6.211668   1.000000
   54       -6.211440   1.000000
   55       -6.035598   1.000000
   56       -6.035496   1.000000
   57       -6.021957   1.000000
   58       -5.966892   1.000000
   59       -5.737491   1.000000
   60       -5.737450   1.000000
   61       -5.656248   1.000000
   62       -5.421037   1.000000
   63       -5.420968   1.000000
   64       -5.099389   1.000000
   65       -5.099000   1.000000
   66       -4.975463   1.000000
   67       -4.750612   1.000000
   68       -4.750271   1.000000
   69       -4.728330   1.000000
   70       -4.598906   1.000000
   71       -4.564482   1.000000
   72       -4.564320   1.000000
   73       -4.553169   1.000000
   74       -4.369122   1.000000
   75       -4.368912   1.000000
   76       -4.124838   1.000000
   77       -3.855526   0.999993
   78       -3.782360   0.999934
   79       -3.467076   0.944555
   80       -3.123186   0.201167
   81       -3.114674   0.184686
   82       -2.799317   0.000881
   83       -2.799196   0.000879
   84       -2.481088   0.000000
   85       -2.480758   0.000000
   86       -2.388251   0.000000
   87       -2.387464   0.000000
   88       -2.232175   0.000000
   89       -2.197763   0.000000
   90       -2.039838   0.000000
   91       -2.039697   0.000000
   92       -1.525759   0.000000
   93       -1.525575   0.000000
   94       -1.098298   0.000000
   95       -1.045787   0.000000
   96       -1.045714   0.000000
 
  0.2500000E+00  0.5551115E-16  0.0000000E+00  0.3125000E-01
    1      -17.736212   1.000000
    2      -16.966980   1.000000
    3      -16.672899   1.000000
    4      -16.661323   1.000000
    5      -16.661223   1.000000
    6      -16.350360   1.000000
    7      -16.350311   1.000000
    8      -16.311924   1.000000
    9      -16.145351   1.000000
   10      -16.145235   1.000000
   11      -15.865095   1.000000
   12      -15.864974   1.000000
   13      -15.841879   1.000000
   14      -15.608690   1.000000
   15      -15.608561   1.000000
   16      -15.602621   1.000000
   17      -15.261095   1.000000
   18      -15.261032   1.000000
   19       -9.588581   1.000000
   20       -9.146608   1.000000
   21       -9.146523   1.000000
   22       -9.138320   1.000000
   23       -8.894999   1.000000
   24       -8.894930   1.000000
   25       -8.678223   1.000000
   26       -8.465587   1.000000
   27       -8.465561   1.000000
   28       -8.350510   1.000000
   29       -8.350388   1.000000
   30       -8.190930   1.000000
   31       -8.190801   1.000000
   32       -8.005122   1.000000
   33       -7.815407   1.000000
   34       -7.815245   1.000000
   35       -7.647353   1.000000
   36       -7.647203   1.000000
   37       -7.643659   1.000000
   38       -7.526747   1.000000
   39       -7.456136   1.000000
   40       -7.456052   1.000000
   41       -7.232356   1.000000
   42       -7.232257   1.000000
   43       -7.057095   1.000000
   44       -7.056969   1.000000
   45       -6.990570   1.000000
   46       -6.903941   1.000000
   47       -6.683086   1.000000
   48       -6.606152   1.000000
   49       -6.605976   1.000000
   50       -6.382799   1.000000
   51       -6.382730   1.000000
   52       -6.356350   1.000000
   53       -6.240672   1.000000
   54       -6.240456   1.000000
   55       -6.099161   1.000000
   56       -6.099057   1.000000
   57       -6.002977   1.000000
   58       -5.874131   1.000000
   59       -5.716289   1.000000
   60       -5.716231   1.000000
   61       -5.597330   1.000000
   62       -5.597141   1.000000
   63       -5.536210   1.000000
   64       -5.322254   1.000000
   65       -5.321880   1.000000
   66       -4.982873   1.000000
   67       -4.774523   1.000000
   68       -4.685658   1.000000
   69       -4.685337   1.000000
   70       -4.503386   1.000000
   71       -4.483711   1.000000
   72       -4.483579   1.000000
   73       -4.481435   1.000000
   74       -4.299441   1.000000
   75       -4.299266   1.000000
   76       -4.268155   1.000000
   77       -3.939814   1.000000
   78       -3.925743   0.999999
   79       -3.487453   0.958921
   80       -3.072361   0.115684
   81       -3.057216   0.096128
   82       -2.733952   0.000165
   83       -2.733882   0.000165
   84       -2.487464   0.000000
   85       -2.486968   0.000000
   86       -2.329735   0.000000
   87       -2.329092   0.000000
   88       -2.136921   0.000000
   89       -2.111597   0.000000
   90       -2.033483   0.000000
   91       -2.033345   0.000000
   92       -1.524733   0.000000
   93       -1.524586   0.000000
   94       -1.214393   0.000000
   95       -1.056270   0.000000
   96       -1.056229   0.000000
 
  0.3750000E+00  0.0000000E+00  0.0000000E+00  0.3125000E-01
    1      -17.635961   1.000000
    2      -17.159077   1.000000
    3      -16.699425   1.000000
    4      -16.699368   1.000000
    5      -16.675133   1.000000
    6      -16.340243   1.000000
    7      -16.340231   1.000000
    8      -16.319199   1.000000
    9      -16.084470   1.000000
   10      -16.084354   1.000000
   11      -15.824509   1.000000
   12      -15.824392   1.000000
   13      -15.728433   1.000000
   14      -15.671863   1.000000
   15      -15.671718   1.000000
   16      -15.588168   1.000000
   17      -15.271417   1.000000
   18      -15.271365   1.000000
   19       -9.763421   1.000000
   20       -9.257075   1.000000
   21       -9.256995   1.000000
   22       -9.071978   1.000000
   23       -8.964320   1.000000
   24       -8.964242   1.000000
   25       -8.580697   1.000000
   26       -8.406318   1.000000
   27       -8.406294   1.000000
   28       -8.271544   1.000000
   29       -8.271368   1.000000
   30       -8.187636   1.000000
   31       -8.187517   1.000000
   32       -8.133078   1.000000
   33       -7.831534   1.000000
   34       -7.831429   1.000000
   35       -7.778146   1.000000
   36       -7.513837   1.000000
   37       -7.513746   1.000000
   38       -7.494067   1.000000
   39       -7.346344   1.000000
   40       -7.346156   1.000000
   41       -7.235932   1.000000
   42       -7.235828   1.000000
   43       -7.028843   1.000000
   44       -7.028709   1.000000
   45       -6.918325   1.000000
   46       -6.738937   1.000000
   47       -6.662148   1.000000
   48       -6.599541   1.000000
   49       -6.599446   1.000000
   50       -6.385286   1.000000
   51       -6.375680   1.000000
   52       -6.375550   1.000000
   53       -6.269360   1.000000
   54       -6.269186   1.000000
   55       -6.075887   1.000000
   56       -6.075785   1.000000
   57       -5.987444   1.000000
   58       -5.833776   1.000000
   59       -5.833704   1.000000
   60       -5.739339   1.000000
   61       -5.717905   1.000000
   62       -5.717847   1.000000
   63       -5.494915   1.000000
   64       -5.494686   1.000000
   65       -5.399422   1.000000
   66       -4.995638   1.000000
   67       -4.794570   1.000000
   68       -4.766128   1.000000
   69       -4.638426   1.000000
   70       -4.638246   1.000000
   71       -4.467917   1.000000
   72       -4.432638   1.000000
   73       -4.432539   1.000000
   74       -4.226000   1.000000
   75       -4.225892   1.000000
   76       -4.219814   1.000000
   77       -4.060931   1.000000
   78       -3.941608   1.000000
   79       -3.465753   0.943500
   80       -3.052518   0.090586
   81       -3.002930   0.045725
   82       -2.690690   0.000049
   83       -2.690656   0.000049
   84       -2.498098   0.000000
   85       -2.497530   0.000000
   86       -2.236459   0.000000
   87       -2.235881   0.000000
   88       -2.035126   0.000000
   89       -2.018118   0.000000
   90       -2.017979   0.000000
   91       -1.987472   0.000000
   92       -1.542728   0.000000
   93       -1.542600   0.000000
   94       -1.422292   0.000000
   95       -1.080798   0.000000
   96       -1.080688   0.000000
 
  0.5000000E+00  0.1110223E-15  0.0000000E+00  0.1562500E-01
    1      -17.567052   1.000000
    2      -17.261651   1.000000
    3      -16.712890   1.000000
    4      -16.712875   1.000000
    5      -16.673106   1.000000
    6      -16.338890   1.000000
    7      -16.338883   1.000000
    8      -16.324460   1.000000
    9      -16.055658   1.000000
   10      -16.055578   1.000000
   11      -15.794756   1.000000
   12      -15.794743   1.000000
   13      -15.713389   1.000000
   14      -15.713381   1.000000
   15      -15.689127   1.000000
   16      -15.579401   1.000000
   17      -15.276198   1.000000
   18      -15.276166   1.000000
   19       -9.830779   1.000000
   20       -9.296087   1.000000
   21       -9.296020   1.000000
   22       -9.034605   1.000000
   23       -8.989715   1.000000
   24       -8.989650   1.000000
   25       -8.518021   1.000000
   26       -8.383645   1.000000
   27       -8.383617   1.000000
   28       -8.222893   1.000000
   29       -8.222659   1.000000
   30       -8.193581   1.000000
   31       -8.186610   1.000000
   32       -8.186539   1.000000
   33       -7.881574   1.000000
   34       -7.881565   1.000000
   35       -7.881388   1.000000
   36       -7.482399   1.000000
   37       -7.482265   1.000000
   38       -7.471740   1.000000
   39       -7.302102   1.000000
   40       -7.302045   1.000000
   41       -7.155400   1.000000
   42       -7.155299   1.000000
   43       -7.036725   1.000000
   44       -7.036684   1.000000
   45       -6.924068   1.000000
   46       -6.653232   1.000000
   47       -6.641342   1.000000
   48       -6.543059   1.000000
   49       -6.543029   1.000000
   50       -6.437750   1.000000
   51       -6.437715   1.000000
   52       -6.363389   1.000000
   53       -6.241342   1.000000
   54       -6.241305   1.000000
   55       -6.140591   1.000000
   56       -6.140543   1.000000
   57       -5.982178   1.000000
   58       -5.850634   1.000000
   59       -5.850572   1.000000
   60       -5.768772   1.000000
   61       -5.768684   1.000000
   62       -5.594853   1.000000
   63       -5.560624   1.000000
   64       -5.560447   1.000000
   65       -5.318532   1.000000
   66       -5.146074   1.000000
   67       -4.904721   1.000000
   68       -4.796936   1.000000
   69       -4.625809   1.000000
   70       -4.625669   1.000000
   71       -4.453950   1.000000
   72       -4.409552   1.000000
   73       -4.409471   1.000000
   74       -4.197255   1.000000
   75       -4.197220   1.000000
   76       -4.177841   1.000000
   77       -4.118150   1.000000
   78       -3.932173   0.999999
   79       -3.446876   0.926662
   80       -3.048738   0.086302
   81       -2.982398   0.033402
   82       -2.677291   0.000033
   83       -2.677260   0.000033
   84       -2.503234   0.000000
   85       -2.502655   0.000000
   86       -2.185522   0.000000
   87       -2.184946   0.000000
   88       -2.010822   0.000000
   89       -2.010689   0.000000
   90       -1.960363   0.000000
   91       -1.933407   0.000000
   92       -1.559371   0.000000
   93       -1.559251   0.000000
   94       -1.547544   0.000000
   95       -1.103255   0.000000
   96       -1.103135   0.000000
 
  0.0000000E+00  0.1250000E+00  0.0000000E+00  0.3125000E-01
    1      -17.801824   1.000000
    2      -16.768457   1.000000
    3      -16.764193   1.000000
    4      -16.536438   1.000000
    5      -16.508628   1.000000
    6      -16.425170   1.000000
    7      -16.358669   1.000000
    8      -16.350879   1.000000
    9      -16.326967   1.000000
   10      -16.027817   1.000000
   11      -16.027685   1.000000
   12      -15.977571   1.000000
   13      -15.829776   1.000000
   14      -15.610659   1.000000
   15      -15.560023   1.000000
   16      -15.540664   1.000000
   17      -15.295012   1.000000
   18      -15.229722   1.000000
   19       -9.348144   1.000000
   20       -9.207316   1.000000
   21       -9.122650   1.000000
   22       -8.978914   1.000000
   23       -8.813114   1.000000
   24       -8.658248   1.000000
   25       -8.601256   1.000000
   26       -8.589894   1.000000
   27       -8.514863   1.000000
   28       -8.505358   1.000000
   29       -8.417966   1.000000
   30       -8.287848   1.000000
   31       -8.173586   1.000000
   32       -8.075615   1.000000
   33       -7.972731   1.000000
   34       -7.865664   1.000000
   35       -7.860544   1.000000
   36       -7.729922   1.000000
   37       -7.689134   1.000000
   38       -7.495646   1.000000
   39       -7.438375   1.000000
   40       -7.414063   1.000000
   41       -7.300743   1.000000
   42       -7.210128   1.000000
   43       -7.100304   1.000000
   44       -6.938669   1.000000
   45       -6.874401   1.000000
   46       -6.872641   1.000000
   47       -6.793070   1.000000
   48       -6.747347   1.000000
   49       -6.600713   1.000000
   50       -6.510555   1.000000
   51       -6.479587   1.000000
   52       -6.239311   1.000000
   53       -6.215840   1.000000
   54       -6.165299   1.000000
   55       -6.078140   1.000000
   56       -6.066010   1.000000
   57       -5.987920   1.000000
   58       -5.882404   1.000000
   59       -5.859544   1.000000
   60       -5.643740   1.000000
   61       -5.636276   1.000000
   62       -5.344339   1.000000
   63       -5.334974   1.000000
   64       -5.188792   1.000000
   65       -5.082762   1.000000
   66       -4.973316   1.000000
   67       -4.948344   1.000000
   68       -4.883375   1.000000
   69       -4.705952   1.000000
   70       -4.642666   1.000000
   71       -4.565869   1.000000
   72       -4.463142   1.000000
   73       -4.417847   1.000000
   74       -4.395860   1.000000
   75       -4.348176   1.000000
   76       -4.045522   1.000000
   77       -3.855305   0.999993
   78       -3.753301   0.999852
   79       -3.428565   0.906899
   80       -3.384533   0.843882
   81       -2.925163   0.012620
   82       -2.865632   0.003923
   83       -2.765214   0.000378
   84       -2.709364   0.000084
   85       -2.465751   0.000000
   86       -2.465645   0.000000
   87       -2.284934   0.000000
   88       -2.170770   0.000000
   89       -2.167678   0.000000
   90       -2.069351   0.000000
   91       -1.977961   0.000000
   92       -1.709663   0.000000
   93       -1.370878   0.000000
   94       -1.068948   0.000000
   95       -1.014300   0.000000
   96       -1.005801   0.000000
 
  0.1250000E+00  0.1250000E+00  0.0000000E+00  0.3125000E-01
    1      -17.755358   1.000000
    2      -16.857653   1.000000
    3      -16.836796   1.000000
    4      -16.650845   1.000000
    5      -16.452281   1.000000
    6      -16.431826   1.000000
    7      -16.322164   1.000000
    8      -16.305683   1.000000
    9      -16.304198   1.000000
   10      -16.034123   1.000000
   11      -15.961758   1.000000
   12      -15.908102   1.000000
   13      -15.798248   1.000000
   14      -15.606229   1.000000
   15      -15.602517   1.000000
   16      -15.558008   1.000000
   17      -15.305781   1.000000
   18      -15.230260   1.000000
   19       -9.462602   1.000000
   20       -9.335237   1.000000
   21       -9.133210   1.000000
   22       -9.050368   1.000000
   23       -8.905355   1.000000
   24       -8.686145   1.000000
   25       -8.637833   1.000000
   26       -8.555584   1.000000
   27       -8.486781   1.000000
   28       -8.429535   1.000000
   29       -8.376590   1.000000
   30       -8.226945   1.000000
   31       -8.127784   1.000000
   32       -7.976235   1.000000
   33       -7.934666   1.000000
   34       -7.855556   1.000000
   35       -7.674529   1.000000
   36       -7.670413   1.000000
   37       -7.662286   1.000000
   38       -7.536694   1.000000
   39       -7.456747   1.000000
   40       -7.427944   1.000000
   41       -7.217181   1.000000
   42       -7.200728   1.000000
   43       -7.123682   1.000000
   44       -7.005588   1.000000
   45       -6.973463   1.000000
   46       -6.897693   1.000000
   47       -6.726133   1.000000
   48       -6.723876   1.000000
   49       -6.552653   1.000000
   50       -6.432305   1.000000
   51       -6.393953   1.000000
   52       -6.298072   1.000000
   53       -6.264304   1.000000
   54       -6.243245   1.000000
   55       -6.053086   1.000000
   56       -6.044278   1.000000
   57       -6.025924   1.000000
   58       -5.869352   1.000000
   59       -5.820900   1.000000
   60       -5.597774   1.000000
   61       -5.566397   1.000000
   62       -5.534682   1.000000
   63       -5.499393   1.000000
   64       -5.249559   1.000000
   65       -5.177825   1.000000
   66       -5.088907   1.000000
   67       -4.888303   1.000000
   68       -4.860717   1.000000
   69       -4.639532   1.000000
   70       -4.546328   1.000000
   71       -4.546020   1.000000
   72       -4.393623   1.000000
   73       -4.379356   1.000000
   74       -4.359014   1.000000
   75       -4.280420   1.000000
   76       -4.143817   1.000000
   77       -4.005318   1.000000
   78       -3.829613   0.999984
   79       -3.453145   0.932634
   80       -3.288144   0.628911
   81       -2.906297   0.008868
   82       -2.811736   0.001184
   83       -2.714921   0.000098
   84       -2.702971   0.000070
   85       -2.449733   0.000000
   86       -2.441264   0.000000
   87       -2.193948   0.000000
   88       -2.154649   0.000000
   89       -2.135652   0.000000
   90       -2.069853   0.000000
   91       -1.974155   0.000000
   92       -1.696057   0.000000
   93       -1.366151   0.000000
   94       -1.138185   0.000000
   95       -1.050323   0.000000
   96       -0.997814   0.000000
 
  0.2500000E+00  0.1250000E+00  0.0000000E+00  0.3125000E-01
    1      -17.668509   1.000000
    2      -17.049225   1.000000
    3      -16.898721   1.000000
    4      -16.668980   1.000000
    5      -16.479100   1.000000
    6      -16.406617   1.000000
    7      -16.305292   1.000000
    8      -16.286259   1.000000
    9      -16.216668   1.000000
   10      -16.032903   1.000000
   11      -15.936238   1.000000
   12      -15.770707   1.000000
   13      -15.760617   1.000000
   14      -15.690399   1.000000
   15      -15.589527   1.000000
   16      -15.581298   1.000000
   17      -15.321532   1.000000
   18      -15.232661   1.000000
   19       -9.658462   1.000000
   20       -9.453884   1.000000
   21       -9.170022   1.000000
   22       -9.080819   1.000000
   23       -8.982171   1.000000
   24       -8.682689   1.000000
   25       -8.619888   1.000000
   26       -8.465147   1.000000
   27       -8.386217   1.000000
   28       -8.352288   1.000000
   29       -8.332944   1.000000
   30       -8.184576   1.000000
   31       -8.183751   1.000000
   32       -8.065852   1.000000
   33       -7.932419   1.000000
   34       -7.823381   1.000000
   35       -7.711032   1.000000
   36       -7.617684   1.000000
   37       -7.517561   1.000000
   38       -7.491908   1.000000
   39       -7.428122   1.000000
   40       -7.379443   1.000000
   41       -7.250794   1.000000
   42       -7.091466   1.000000
   43       -7.067048   1.000000
   44       -7.022529   1.000000
   45       -6.929211   1.000000
   46       -6.856799   1.000000
   47       -6.724001   1.000000
   48       -6.650544   1.000000
   49       -6.529904   1.000000
   50       -6.378669   1.000000
   51       -6.357226   1.000000
   52       -6.346310   1.000000
   53       -6.325845   1.000000
   54       -6.177125   1.000000
   55       -6.133658   1.000000
   56       -6.024480   1.000000
   57       -6.007405   1.000000
   58       -5.873179   1.000000
   59       -5.783781   1.000000
   60       -5.746294   1.000000
   61       -5.652273   1.000000
   62       -5.582243   1.000000
   63       -5.480242   1.000000
   64       -5.458338   1.000000
   65       -5.281611   1.000000
   66       -5.150288   1.000000
   67       -4.922346   1.000000
   68       -4.783330   1.000000
   69       -4.586084   1.000000
   70       -4.557550   1.000000
   71       -4.495481   1.000000
   72       -4.411648   1.000000
   73       -4.342341   1.000000
   74       -4.321404   1.000000
   75       -4.223542   1.000000
   76       -4.180181   1.000000
   77       -4.124878   1.000000
   78       -3.865815   0.999995
   79       -3.470111   0.946917
   80       -3.166926   0.298691
   81       -2.903304   0.008373
   82       -2.756625   0.000302
   83       -2.694412   0.000055
   84       -2.666938   0.000024
   85       -2.434286   0.000000
   86       -2.370919   0.000000
   87       -2.110071   0.000000
   88       -2.091909   0.000000
   89       -2.057952   0.000000
   90       -2.041312   0.000000
   91       -1.959426   0.000000
   92       -1.711477   0.000000
   93       -1.367573   0.000000
   94       -1.306250   0.000000
   95       -1.104124   0.000000
   96       -1.056268   0.000000
 
  0.3750000E+00  0.1250000E+00  0.0000000E+00  0.3125000E-01
    1      -17.568881   1.000000
    2      -17.213954   1.000000
    3      -16.932352   1.000000
    4      -16.666919   1.000000
    5      -16.494417   1.000000
    6      -16.405905   1.000000
    7      -16.313862   1.000000
    8      -16.279075   1.000000
    9      -16.111751   1.000000
   10      -16.026252   1.000000
   11      -15.903721   1.000000
   12      -15.787308   1.000000
   13      -15.738803   1.000000
   14      -15.691717   1.000000
   15      -15.595730   1.000000
   16      -15.576712   1.000000
   17      -15.333093   1.000000
   18      -15.235569   1.000000
   19       -9.786666   1.000000
   20       -9.520341   1.000000
   21       -9.243551   1.000000
   22       -9.022531   1.000000
   23       -9.019106   1.000000
   24       -8.715413   1.000000
   25       -8.516303   1.000000
   26       -8.398136   1.000000
   27       -8.369565   1.000000
   28       -8.284773   1.000000
   29       -8.267381   1.000000
   30       -8.184942   1.000000
   31       -8.164526   1.000000
   32       -8.163657   1.000000
   33       -8.047730   1.000000
   34       -7.861355   1.000000
   35       -7.726234   1.000000
   36       -7.672196   1.000000
   37       -7.490298   1.000000
   38       -7.454880   1.000000
   39       -7.379234   1.000000
   40       -7.286036   1.000000
   41       -7.166625   1.000000
   42       -7.088002   1.000000
   43       -7.069941   1.000000
   44       -6.965676   1.000000
   45       -6.888777   1.000000
   46       -6.779166   1.000000
   47       -6.684189   1.000000
   48       -6.547100   1.000000
   49       -6.492822   1.000000
   50       -6.412986   1.000000
   51       -6.364433   1.000000
   52       -6.323399   1.000000
   53       -6.293316   1.000000
   54       -6.173512   1.000000
   55       -6.099500   1.000000
   56       -6.082523   1.000000
   57       -6.009524   1.000000
   58       -5.921811   1.000000
   59       -5.880783   1.000000
   60       -5.706241   1.000000
   61       -5.691874   1.000000
   62       -5.642825   1.000000
   63       -5.568193   1.000000
   64       -5.418514   1.000000
   65       -5.386821   1.000000
   66       -5.139015   1.000000
   67       -5.048395   1.000000
   68       -4.788420   1.000000
   69       -4.754289   1.000000
   70       -4.551808   1.000000
   71       -4.468934   1.000000
   72       -4.397854   1.000000
   73       -4.302152   1.000000
   74       -4.281850   1.000000
   75       -4.222447   1.000000
   76       -4.136458   1.000000
   77       -4.114207   1.000000
   78       -3.863306   0.999994
   79       -3.471678   0.948105
   80       -3.058983   0.098275
   81       -2.934784   0.015016
   82       -2.723895   0.000126
   83       -2.693301   0.000053
   84       -2.645155   0.000012
   85       -2.434059   0.000000
   86       -2.287257   0.000000
   87       -2.051134   0.000000
   88       -2.050806   0.000000
   89       -2.024852   0.000000
   90       -1.945350   0.000000
   91       -1.931530   0.000000
   92       -1.745255   0.000000
   93       -1.485420   0.000000
   94       -1.388534   0.000000
   95       -1.159691   0.000000
   96       -1.091340   0.000000
 
  0.5000000E+00  0.1250000E+00  0.0000000E+00  0.3125000E-01
    1      -17.568868   1.000000
    2      -17.213972   1.000000
    3      -16.932326   1.000000
    4      -16.666913   1.000000
    5      -16.494448   1.000000
    6      -16.405896   1.000000
    7      -16.313859   1.000000
    8      -16.279077   1.000000
    9      -16.111859   1.000000
   10      -16.026237   1.000000
   11      -15.903784   1.000000
   12      -15.787172   1.000000
   13      -15.738752   1.000000
   14      -15.691700   1.000000
   15      -15.595771   1.000000
   16      -15.576715   1.000000
   17      -15.333074   1.000000
   18      -15.235591   1.000000
   19       -9.786653   1.000000
   20       -9.520359   1.000000