unknown system                          
           1
     8.855945    5.108903    0.000000
    -8.852556    5.103072    0.000000
     0.000000    0.000000   30.000000
   V    Mo   W    S 
   3   3   3  18
Direct configuration=     1
   0.00000000  0.00000000  0.00000000
   1.00000000  0.33333334  0.00000000
   0.00000000  0.66666669  0.00000000
   0.33333334  0.00000000  0.00000000
   0.33333334  0.33333334  0.00000000
   0.33333334  0.66666669  0.00000000
   0.66666669  0.00000000  0.00000000
   0.66666669  0.33333334  0.00000000
   0.66666669  0.66666669  0.00000000
   0.11068511  0.22244981  0.95539999
   0.22244981  0.11068511  0.04460000
   0.11068511  0.55578315  0.95539999
   0.22244981  0.44401845  0.04460000
   0.11068511  0.88911647  0.95539999
   0.22244981  0.77735180  0.04460000
   0.44401845  0.22244981  0.95539999
   0.55578315  0.11068511  0.04460000
   0.44401845  0.55578315  0.95539999
   0.55578315  0.44401845  0.04460000
   0.44401845  0.88911647  0.95539999
   0.55578315  0.77735180  0.04460000
   0.77735180  0.22244981  0.95539999
   0.88911647  0.11068511  0.04460000
   0.77735180  0.55578315  0.95539999
   0.88911647  0.44401845  0.04460000
   0.77735180  0.88911647  0.95539999
   0.88911647  0.77735180  0.04460000
unknown system                          
           1
     8.667457    5.001817    0.000000
    -8.664779    4.997217    0.000000
     0.000000    0.000000   30.000000
   V    Mo   W    S 
   3   3   3  18
Direct configuration=     2
   0.00226118  0.00109210 -0.00000202
   1.00226104  0.33442512 -0.00000207
   0.00226095  0.66775836 -0.00000204
   0.33317140 -0.00007052 -0.00017394
   0.33317129  0.33326243 -0.00017395
   0.33317118  0.66659551 -0.00017397
   0.66418289 -0.00123764  0.00024596
   0.66418254  0.33209499  0.00024597
   0.66418277  0.66542829  0.00024599
   0.10664670  0.22018212  0.95309938
   0.21765895  0.10883113  0.04803634
   0.10664666  0.55351506  0.95309948
   0.21765861  0.44216470  0.04803633
   0.10664699  0.88684838  0.95309948
   0.21765882  0.77549817  0.04803627
   0.44514689  0.22252879  0.95070526
   0.55655166  0.11161770  0.04930543
   0.44514724  0.55586268  0.95070528
   0.55655198  0.44495170  0.04930548
   0.44514710  0.88919603  0.95070532
   0.55655198  0.77828470  0.04930543
   0.78148144  0.22392566  0.95195706
   0.89230381  0.11253581  0.04682645
   0.78148147  0.55725945  0.95195706
   0.89230420  0.44586927  0.04682643
   0.78148106  0.89059239  0.95195704
   0.89230363  0.77920206  0.04682648
unknown system                          
           1
     8.482670    4.900789    0.000000
    -8.479847    4.895932    0.000000
     0.000000    0.000000   30.000000
   V    Mo   W    S 
   3   3   3  18
Direct configuration=     3
   0.00296226  0.00144176  0.00003658
   1.00296488  0.33478658  0.00003642
   0.00296534  0.66811028  0.00003642
   0.33368757  0.00018295 -0.00018517
   0.33369448  0.33353026 -0.00018529
   0.33368509  0.66685584 -0.00018513
   0.66310739 -0.00178096  0.00019739
   0.66311390  0.33155931  0.00019703
   0.66310863  0.66488359  0.00019727
   0.10657030  0.22012254  0.95308311
   0.21749660  0.10873631  0.04805036
   0.10656845  0.55345450  0.95308374
   0.21749392  0.44206822  0.04805005
   0.10656934  0.88678169  0.95308326
   0.21749162  0.77540054  0.04804968
   0.44538714  0.22265943  0.95060803
   0.55675138  0.11169933  0.04939414
   0.44538834  0.55599339  0.95060781
   0.55675189  0.44503499  0.04939441
   0.44538745  0.88932637  0.95060755
   0.55675229  0.77836650  0.04939360
   0.78131256  0.22386456  0.95211523
   0.89212565  0.11247008  0.04670121
   0.78131418  0.55720153  0.95211566
   0.89212959  0.44580449  0.04670083
   0.78130842  0.89052989  0.95211492
   0.89212578  0.77913049  0.04670078
unknown system                          
           1
     8.272986    4.792461    0.000000
    -8.258794    4.767911    0.000000
     0.000000    0.000000   30.000000
   V    Mo   W    S 
   3   3   3  18
Direct configuration=     4
   0.00546976  0.00270851  0.00019802
   1.00549015  0.33605814  0.00019559
   0.00549024  0.66938101  0.00019653
   0.33662780  0.00163535 -0.00014449
   0.33663723  0.33502016 -0.00014492
   0.33667563  0.66834929 -0.00014344
   0.65843910 -0.00416103 -0.00003594
   0.65846171  0.32920644 -0.00003791
   0.65843461  0.66253266 -0.00003642
   0.10564169  0.21956744  0.95169185
   0.21629595  0.10810012  0.04949463
   0.10564786  0.55289043  0.95168705
   0.21628907  0.44143415  0.04949665
   0.10564991  0.88624788  0.95168729
   0.21630365  0.77476769  0.04949992
   0.44533721  0.22266709  0.94858563
   0.55661386  0.11158318  0.05141836
   0.44533443  0.55600593  0.94858200
   0.55661376  0.44490990  0.05142132
   0.44533328  0.88932942  0.94858173
   0.55661004  0.77824431  0.05142266
   0.78213681  0.22435910  0.95128585
   0.89280964  0.11289369  0.04750832
   0.78212744  0.55768775  0.95128125
   0.89280015  0.44620617  0.04751381
   0.78213995  0.89102884  0.95128200
   0.89280354  0.77956084  0.04751255
unknown system                          
           1
     8.270680    4.806969    0.000000
    -8.243219    4.759432    0.000000
     0.000000    0.000000   30.000000
   V    Mo   W    S 
   3   3   3  18
Direct configuration=     5
   0.01085581  0.00540515  0.00039100
   1.01086430  0.33873598  0.00038472
   0.01086262  0.67208381  0.00038638
   0.34287905  0.00475413 -0.00004972
   0.34289073  0.33813211 -0.00004838
   0.34293842  0.67146633 -0.00005302
   0.64891596 -0.00896287 -0.00026559
   0.64892890  0.32442198 -0.00026666
   0.64890542  0.65774088 -0.00026386
   0.10563935  0.21944154  0.94968954
   0.21593128  0.10793217  0.05145906
   0.10565459  0.55277389  0.94968940
   0.21592758  0.44127236  0.05146737
   0.10564182  0.88611318  0.94968976
   0.21593003  0.77458985  0.05146752
   0.44394217  0.22196908  0.94553073
   0.55605832  0.11130647  0.05431553
   0.44394537  0.55531132  0.94552010
   0.55605739  0.44463943  0.05431766
   0.44394334  0.88863103  0.94552107
   0.55605659  0.77797131  0.05432990
   0.78255358  0.22458444  0.95052488
   0.89259248  0.11290894  0.04840536
   0.78255512  0.55792662  0.95052193
   0.89259271  0.44623229  0.04840882
   0.78256298  0.89125806  0.95052060
   0.89258854  0.77957496  0.04840578
unknown system                          
           1
     8.269348    4.805815    0.000000
    -8.242206    4.758832    0.000000
     0.000000    0.000000   30.000000
   V    Mo   W    S 
   3   3   3  18
Direct configuration=     6
   0.01389689  0.00693075  0.00035054
   1.01391114  0.34025631  0.00034711
   0.01390048  0.67359315  0.00034912
   0.34356234  0.00508692 -0.00029889
   0.34357985  0.33847270 -0.00029933
   0.34361332  0.67177761 -0.00029936
   0.64625886 -0.01028451 -0.00008318
   0.64626730  0.32310902 -0.00008450
   0.64623933  0.65642138 -0.00008277
   0.10651913  0.21988391  0.94957153
   0.21721659  0.10858020  0.05166227
   0.10653082  0.55321591  0.94957252
   0.21720879  0.44191765  0.05166538
   0.10652171  0.88655384  0.94957072
   0.21721220  0.77523636  0.05166588
   0.44283481  0.22141249  0.94506739
   0.55605001  0.11130260  0.05476990
   0.44284373  0.55475239  0.94505898
   0.55605042  0.44463901  0.05477403
   0.44284004  0.88807847  0.94506027
   0.55604947  0.77797040  0.05478122
   0.78157772  0.22408765  0.95090094
   0.89145765  0.11234922  0.04806246
   0.78157465  0.55743207  0.95089683
   0.89146343  0.44567110  0.04806276
   0.78158007  0.89075706  0.95089550
   0.89145371  0.77901079  0.04806258
unknown system                          
           1
     8.273611    4.812043    0.000000
    -8.243235    4.759456    0.000000
     0.000000    0.000000   30.000000
   V    Mo   W    S 
   3   3   3  18
Direct configuration=     7
   0.01653773  0.00825093  0.00041708
   1.01654981  0.34157278  0.00041315
   0.01653561  0.67490977  0.00041584
   0.34408582  0.00534515 -0.00034193
   0.34409290  0.33872162 -0.00034227
   0.34412597  0.67203578 -0.00034327
   0.64393462 -0.01144080 -0.00003272
   0.64394631  0.32194815 -0.00003333
   0.64392801  0.65527054 -0.00003036
   0.10692913  0.22008798  0.94942831
   0.21789272  0.10892187  0.05173186
   0.10693979  0.55342179  0.94942963
   0.21788545  0.44225667  0.05173591
   0.10692986  0.88676022  0.94942863
   0.21789050  0.77557755  0.05173500
   0.44240041  0.22118953  0.94480246
   0.55574305  0.11115372  0.05501762
   0.44240781  0.55452942  0.94479321
   0.55574284  0.44449182  0.05502310
   0.44240661  0.88785475  0.94479725
   0.55574159  0.77781973  0.05502919
   0.78105260  0.22382079  0.95129106
   0.89080405  0.11202365  0.04768769
   0.78104977  0.55716637  0.95128617
   0.89080790  0.44534807  0.04768819
   0.78105523  0.89048860  0.95128556
   0.89079837  0.77868798  0.04768688
unknown system                          
           1
     8.281374    4.828502    0.000000
    -8.240712    4.758100    0.000000
     0.000000    0.000000   30.000000
   V    Mo   W    S 
   3   3   3  18
Direct configuration=     8
   0.01851355  0.00923650  0.00041850
   1.01852867  0.34256546  0.00041448
   0.01851704  0.67589789  0.00041701
   0.34423414  0.00541525 -0.00042779
   0.34424204  0.33879425 -0.00042823
   0.34426582  0.67210614 -0.00042920
   0.64237046 -0.01222029  0.00004398
   0.64237879  0.32116588  0.00004282
   0.64236450  0.65448962  0.00004556
   0.10712939  0.22018615  0.94933357
   0.21839355  0.10917317  0.05182881
   0.10713822  0.55352606  0.94933534
   0.21839072  0.44250932  0.05183376
   0.10712671  0.88685773  0.94933574
   0.21839095  0.77582904  0.05183118
   0.44202490  0.22099916  0.94462593
   0.55555465  0.11106191  0.05519129
   0.44203230  0.55433760  0.94461724
   0.55555277  0.44439963  0.05519655
   0.44203004  0.88766331  0.94462078
   0.55555275  0.77772833  0.05520217
   0.78075307  0.22366941  0.95159678
   0.89040585  0.11182218  0.04739050
   0.78075330  0.55701632  0.95159282
   0.89040880  0.44515365  0.04739059
   0.78075911  0.89033864  0.95159123
   0.89040237  0.77849217  0.04738847
unknown system                          
           1
     8.305008    4.854291    0.000000
    -8.253917    4.765825    0.000000
     0.000000    0.000000   30.000000
   V    Mo   W    S 
   3   3   3  18
Direct configuration=     9
   0.02735791  0.01366168  0.00038039
   1.02736128  0.34697417  0.00037762
   0.02733875  0.68030912  0.00037917
   0.34447858  0.00553364 -0.00072784
   0.34447873  0.33890183 -0.00072787
   0.34449956  0.67221673 -0.00072793
   0.63555277 -0.01561882  0.00043207
   0.63555711  0.31775738  0.00043191
   0.63555050  0.65108352  0.00043290
   0.10780509  0.22053746  0.94887616
   0.22058775  0.11027136  0.05224164
   0.10780541  0.55385384  0.94887728
   0.22056684  0.44359485  0.05224326
   0.10780605  0.88719772  0.94887476
   0.22057256  0.77692485  0.05224460
   0.44050176  0.22022512  0.94393580
   0.55450087  0.11054439  0.05583914
   0.44051513  0.55356522  0.94393109
   0.55449456  0.44388219  0.05584285
   0.44051162  0.88689293  0.94393256
   0.55449331  0.77720663  0.05584806
   0.77973392  0.22315488  0.95312914
   0.88889997  0.11109227  0.04589583
   0.77972273  0.55649563  0.95312074
   0.88890946  0.44440486  0.04589706
   0.77972001  0.88981455  0.95312000
   0.88889225  0.77773644  0.04589951
unknown system                          
           1
     8.292957    4.829409    0.000000
    -8.257355    4.767769    0.000000
     0.000000    0.000000   30.000000
   V    Mo   W    S 
   3   3   3  18
Direct configuration=    10
   0.03557991  0.01777247  0.00011225
   1.03557984  0.35108019  0.00010989
   0.03555062  0.68441661  0.00011193
   0.34440540  0.00550246 -0.00106179
   0.34439520  0.33883309 -0.00106165
   0.34440888  0.67217180 -0.00106189
   0.62906981 -0.01884456  0.00096380
   0.62906522  0.31450800  0.00096274
   0.62908037  0.64784647  0.00096498
   0.10850825  0.22090013  0.94832068
   0.22324749  0.11160017  0.05280546
   0.10850008  0.55419395  0.94832129
   0.22320950  0.44491289  0.05280489
   0.10851551  0.88755631  0.94831704
   0.22322487  0.77825617  0.05280850
   0.43877164  0.21934652  0.94323802
   0.55317622  0.10989093  0.05654878
   0.43878437  0.55268780  0.94323560
   0.55317052  0.44322963  0.05655149
   0.43878037  0.88601885  0.94323605
   0.55316899  0.77655148  0.05655483
   0.77906245  0.22281755  0.95488143
   0.88762878  0.11047187  0.04419553
   0.77904007  0.55614927  0.95487046
   0.88763839  0.44377085  0.04419686
   0.77903570  0.88947089  0.95487031
   0.88761600  0.77710268  0.04420239
unknown system                          
           1
     8.306784    4.836538    0.000000
    -8.271953    4.776233    0.000000
     0.000000    0.000000   30.000000
   V    Mo   W    S 
   3   3   3  18
Direct configuration=    11
   0.03031486  0.01514710  0.00004994
   1.03033545  0.34846006  0.00004761
   0.03029084  0.68178046  0.00005015
   0.34415417  0.00538259 -0.00086145
   0.34413014  0.33871135 -0.00086182
   0.34415360  0.67203737 -0.00086239
   0.63282099 -0.01697450  0.00080883
   0.63282517  0.31638637  0.00080769
   0.63282155  0.64971747  0.00080802
   0.10840386  0.22083663  0.94848101
   0.22242971  0.11119022  0.05256403
   0.10840129  0.55414857  0.94848232
   0.22240846  0.44451338  0.05256512
   0.10840715  0.88750429  0.94848144
   0.22242317  0.77785299  0.05256631
   0.43957343  0.21975313  0.94366421
   0.55340722  0.11000161  0.05623941
   0.43958385  0.55309326  0.94366228
   0.55340590  0.44333840  0.05624187
   0.43958078  0.88642481  0.94366309
   0.55340564  0.77666910  0.05624508
   0.77968374  0.22313244  0.95431060
   0.88864114  0.11096205  0.04474559
   0.77966403  0.55646341  0.95430237
   0.88864230  0.44427122  0.04474653
   0.77967161  0.88979301  0.95430236
   0.88863442  0.77761766  0.04474970
unknown system                          
           1
     8.312617    4.836835    0.000000
    -8.280457    4.781155    0.000000
     0.000000    0.000000   30.000000
   V    Mo   W    S 
   3   3   3  18
Direct configuration=    12
   0.03450336  0.01724203 -0.00027192
   1.03446443  0.35050673 -0.00027302
   0.03442648  0.68386689 -0.00026858
   0.34379899  0.00521963 -0.00094363
   0.34377250  0.33851447 -0.00094213
   0.34383213  0.67186866 -0.00094202
   0.62916225 -0.01879684  0.00126681
   0.62917484  0.31455603  0.00126596
   0.62915895  0.64788876  0.00126607
   0.10891974  0.22107820  0.94802726
   0.22375673  0.11185227  0.05271881
   0.10892015  0.55441044  0.94802832
   0.22377054  0.44519346  0.05272486
   0.10891710  0.88777552  0.94803262
   0.22377530  0.77852984  0.05272220
   0.43885623  0.21939063  0.94344193
   0.55237782  0.10948903  0.05665372
   0.43886890  0.55272998  0.94344346
   0.55237545  0.44282870  0.05665296
   0.43886439  0.88605772  0.94344453
   0.55237069  0.77615571  0.05665533
   0.77965802  0.22312139  0.95546575
   0.88839993  0.11082918  0.04363446
   0.77963620  0.55644779  0.95545690
   0.88839117  0.44414848  0.04363843
   0.77966296  0.88979111  0.95546272
   0.88839921  0.77751867  0.04363809
unknown system                          
           1
     8.311271    4.834653    0.000000
    -8.280324    4.781074    0.000000
     0.000000    0.000000   30.000000
   V    Mo   W    S 
   3   3   3  18
Direct configuration=    13
   0.03497218  0.01748589 -0.00053459
   1.03499661  0.35078102 -0.00053165
   0.03493905  0.68410844 -0.00052623
   0.34342357  0.00503177 -0.00097428
   0.34337780  0.33832802 -0.00097306
   0.34341328  0.67164545 -0.00097590
   0.62877958 -0.01898665  0.00141701
   0.62877830  0.31435376  0.00141494
   0.62878649  0.64770454  0.00141659
   0.10912451  0.22118828  0.94779977
   0.22372261  0.11183449  0.05270298
   0.10912164  0.55450785  0.94780882
   0.22370828  0.44516364  0.05269841
   0.10912278  0.88787303  0.94780486
   0.22372236  0.77850122  0.05269613
   0.43896150  0.21944286  0.94355015
   0.55195470  0.10927929  0.05686474
   0.43895741  0.55277055  0.94355067
   0.55195533  0.44261565  0.05686343
   0.43895663  0.88610523  0.94355390
   0.55195369  0.77594857  0.05686814
   0.77973648  0.22316167  0.95582423
   0.88877449  0.11101969  0.04334555
   0.77970426  0.55648368  0.95581565
   0.88876783  0.44433118  0.04334812
   0.77973559  0.88982982  0.95582216
   0.88876751  0.77770552  0.04334936
unknown system                          
           1
     8.311834    4.834158    0.000000
    -8.281593    4.781801    0.000000
     0.000000    0.000000   30.000000
   V    Mo   W    S 
   3   3   3  18
Direct configuration=    14
   0.03506271  0.01752680 -0.00063001
   1.03507944  0.35082812 -0.00063007
   0.03504318  0.68416048 -0.00062376
   0.34332266  0.00498254 -0.00092529
   0.34328793  0.33828285 -0.00092330
   0.34331255  0.67159357 -0.00092604
   0.62870733 -0.01901964  0.00154276
   0.62870798  0.31431706  0.00154071
   0.62871052  0.64766446  0.00154188
   0.10922323  0.22124001  0.94768580
   0.22353323  0.11173924  0.05264506
   0.10921791  0.55456067  0.94769626
   0.22352714  0.44507300  0.05264386
   0.10921885  0.88791385  0.94769411
   0.22353031  0.77840521  0.05263697
   0.43909307  0.21951035  0.94359985
   0.55179371  0.10919926  0.05688899
   0.43909064  0.55283555  0.94359980
   0.55179481  0.44253525  0.05688679
   0.43908551  0.88616899  0.94360367
   0.55179155  0.77586686  0.05689149
   0.77972712  0.22315723  0.95592113
   0.88897925  0.11112155  0.04326818
   0.77969945  0.55648178  0.95591379
   0.88897423  0.44443779  0.04326886
   0.77972516  0.88982603  0.95591860
   0.88897499  0.77780557  0.04326980
unknown system                          
           1
     8.310321    4.832597    0.000000
    -8.280673    4.781269    0.000000
     0.000000    0.000000   30.000000
   V    Mo   W    S 
   3   3   3  18
Direct configuration=    15
   0.03504798  0.01751578 -0.00073873
   1.03505336  0.35081855 -0.00074013
   0.03502704  0.68415374 -0.00073500
   0.34325736  0.00495180 -0.00091509
   0.34323145  0.33825395 -0.00091296
   0.34325201  0.67156192 -0.00091453
   0.62876404 -0.01898950  0.00160461
   0.62876899  0.31434761  0.00160265
   0.62876735  0.64769082  0.00160333
   0.10932341  0.22128725  0.94758496
   0.22325557  0.11160074  0.05261732
   0.10931738  0.55461630  0.94759338
   0.22326068  0.44493840  0.05262061
   0.10931631  0.88795984  0.94759423
   0.22326021  0.77827053  0.05261330
   0.43928042  0.21960521  0.94366516
   0.55165235  0.10912904  0.05695639
   0.43928031  0.55292957  0.94366421
   0.55165444  0.44246470  0.05695422
   0.43927235  0.88626183  0.94366867
   0.55164893  0.77579500  0.05695786
   0.77966451  0.22312556  0.95597017
   0.88918537  0.11122216  0.04325075
   0.77964373  0.55645408  0.95596454
   0.88918029  0.44454507  0.04325084
   0.77966570  0.88979751  0.95596816
   0.88918289  0.77790701  0.04325098
unknown system                          
           1
     8.311762    4.832880    0.000000
    -8.282589    4.782373    0.000000
     0.000000    0.000000   30.000000
   V    Mo   W    S 
   3   3   3  18
Direct configuration=    16
   0.03507120  0.01749505 -0.00087094
   1.03501838  0.35081537 -0.00086928
   0.03509460  0.68420717 -0.00086537
   0.34315874  0.00489177 -0.00088665
   0.34320658  0.33822751 -0.00088351
   0.34319745  0.67155901 -0.00088456
   0.62878150 -0.01898269  0.00171372
   0.62878459  0.31435841  0.00171276
   0.62877955  0.64769543  0.00171307
   0.10947426  0.22135068  0.94746454
   0.22293721  0.11144330  0.05257585
   0.10946460  0.55471423  0.94747190
   0.22295595  0.44478416  0.05258195
   0.10945775  0.88801898  0.94747698
   0.22291634  0.77809798  0.05256649
   0.43948923  0.21971407  0.94372646
   0.55148818  0.10904925  0.05702395
   0.43949629  0.55303620  0.94372717
   0.55148478  0.44238205  0.05702254
   0.43947913  0.88636202  0.94373050
   0.55148040  0.77570567  0.05702533
   0.77957746  0.22308151  0.95602295
   0.88940592  0.11132271  0.04322140
   0.77959064  0.55642719  0.95602388
   0.88941170  0.44468106  0.04321873
   0.77959423  0.88976347  0.95602412
   0.88941780  0.77801289  0.04321593
unknown system                          
           1
     8.310239    4.831840    0.000000
    -8.281204    4.781573    0.000000
     0.000000    0.000000   30.000000
   V    Mo   W    S 
   3   3   3  18
Direct configuration=    17
   0.03509702  0.01751917 -0.00096474
   1.03508003  0.35084384 -0.00096076
   0.03509233  0.68419821 -0.00096447
   0.34309484  0.00486410 -0.00087715
   0.34311106  0.33818423 -0.00087775
   0.34311030  0.67150637 -0.00087829
   0.62879520 -0.01897753  0.00176997
   0.62880261  0.31437216  0.00176783
   0.62880466  0.64770457  0.00176844
   0.10959047  0.22141557  0.94738464
   0.22272573  0.11133846  0.05255633
   0.10958359  0.55476603  0.94738761
   0.22272530  0.44466732  0.05255543
   0.10958183  0.88808190  0.94738579
   0.22272211  0.77800128  0.05255435
   0.43964147  0.21978520  0.94377263
   0.55135220  0.10898000  0.05709684
   0.43964293  0.55311137  0.94377405
   0.55135726  0.44231684  0.05709817
   0.43963400  0.88644262  0.94377528
   0.55135035  0.77564302  0.05710010
   0.77953834  0.22306255  0.95606098
   0.88955461  0.11139802  0.04319788
   0.77955290  0.55640842  0.95606275
   0.88955808  0.44475372  0.04319651
   0.77955328  0.88974285  0.95606217
   0.88956195  0.77808415  0.04319533
unknown system                          
           1
     8.307602    4.829256    0.000000
    -8.279484    4.780577    0.000000
     0.000000    0.000000   30.000000
   V    Mo   W    S 
   3   3   3  18
Direct configuration=    18
   0.03510278  0.01753080 -0.00101105
   1.03510402  0.35085350 -0.00100830
   0.03508982  0.68419083 -0.00101000
   0.34310430  0.00487014 -0.00086433
   0.34309948  0.33818280 -0.00086554
   0.34310600  0.67149842 -0.00086546
   0.62878263 -0.01898286  0.00181015
   0.62879142  0.31436471  0.00180853
   0.62879371  0.64769995  0.00180940
   0.10965813  0.22145661  0.94734193
   0.22261569  0.11128339  0.05253993
   0.10965336  0.55478869  0.94734321
   0.22260988  0.44460956  0.05253754
   0.10965502  0.88812354  0.94733912
   0.22261761  0.77794894  0.05253891
   0.43972240  0.21982355  0.94379721
   0.55128116  0.10894470  0.05712024
   0.43972177  0.55315167  0.94379812
   0.55128895  0.44228200  0.05712161
   0.43971649  0.88648518  0.94380053
   0.55128047  0.77560839  0.05712313
   0.77950675  0.22304701  0.95608467
   0.88962760  0.11143894  0.04318088
   0.77951129  0.55638794  0.95608437
   0.88962877  0.44478209  0.04318025
   0.77951448  0.88972317  0.95608467
   0.88963045  0.77812080  0.04318017
unknown system                          
           1
     8.309900    4.830759    0.000000
    -8.281629    4.781816    0.000000
     0.000000    0.000000   30.000000
   V    Mo   W    S 
   3   3   3  18
Direct configuration=    19
   0.03517334  0.01756039 -0.00118069
   1.03516007  0.35088776 -0.00118212
   0.03518462  0.68423846 -0.00117688
   0.34294531  0.00478524 -0.00083633
   0.34295783  0.33810883 -0.00083470
   0.34295268  0.67143031 -0.00083514
   0.62881652 -0.01896193  0.00194304
   0.62881871  0.31437420  0.00194207
   0.62881549  0.64771063  0.00194309
   0.10988974  0.22157399  0.94718656
   0.22220167  0.11107752  0.05249557
   0.10988395  0.55490103  0.94718889
   0.22220390  0.44440458  0.05249878
   0.10988825  0.88824225  0.94718863
   0.22219449  0.77773763  0.05249065
   0.43998046  0.21995518  0.94386248
   0.55103678  0.10882419  0.05724734
   0.43998221  0.55327954  0.94386121
   0.55103758  0.44215631  0.05724645
   0.43997264  0.88661283  0.94386589
   0.55103245  0.77548217  0.05724861
   0.77944545  0.22301631  0.95615115
   0.88991195  0.11158450  0.04312946
   0.77944971  0.55635717  0.95614941
   0.88991438  0.44492481  0.04312846
   0.77944842  0.88969055  0.95614959
   0.88991587  0.77826003  0.04312843
unknown system                          
           1
     8.311380    4.831016    0.000000
    -8.283626    4.782968    0.000000
     0.000000    0.000000   30.000000
   V    Mo   W    S 
   3   3   3  18
Direct configuration=    20
   0.03516952  0.01756223 -0.00117979
   1.03516745  0.35088885 -0.00117858
   0.03516626  0.68422783 -0.00117869
   0.34297745  0.00480535 -0.00083600
   0.34297718  0.33812138 -0.00083579
   0.34297876  0.67143635 -0.00083600
   0.62879313 -0.01897528  0.00193994
   0.62879918  0.31436679  0.00193838
   0.62879805  0.64770124  0.00193870
   0.10989238  0.22157572  0.94717992
   0.22220672  0.11107885  0.05250138
   0.10988882  0.55490377  0.94718163
   0.22220275  0.44440560  0.05250146
   0.10989198  0.88824356  0.94717978
   0.22220884  0.77774435  0.05249936
   0.44000015  0.21996277  0.94386930
   0.55103451  0.10882195  0.05724171
   0.44000058  0.55329114  0.94386959
   0.55103936  0.44215669  0.05724216
   0.43999265  0.88662279  0.94387277
   0.55103182  0.77548343  0.05724345
   0.77943308  0.22301061  0.95615236
   0.88989554  0.11157582  0.04313029
   0.77943686  0.55635080  0.95615139
   0.88989689  0.44491558  0.04312974
   0.77943669  0.88968412  0.95615153
   0.88989787  0.77825218  0.04312990
unknown system                          
           1
     8.310222    4.830412    0.000000
    -8.282413    4.782268    0.000000
     0.000000    0.000000   30.000000
   V    Mo   W    S 
   3   3   3  18
Direct configuration=    21
   0.03520375  0.01757002 -0.00124907
   1.03520164  0.35091581 -0.00124845
   0.03524076  0.68426446 -0.00124767
   0.34292038  0.00476555 -0.00082269
   0.34294367  0.33810521 -0.00082226
   0.34292103  0.67141827 -0.00082237
   0.62878441 -0.01897866  0.00199721
   0.62878862  0.31436099  0.00199669
   0.62878887  0.64769607  0.00199789
   0.11001413  0.22163731  0.94712877
   0.22206265  0.11100742  0.05247122
   0.11000942  0.55496856  0.94713116
   0.22206115  0.44433329  0.05247189
   0.11001202  0.88829887  0.94712946
   0.22205425  0.77766758  0.05246550
   0.44012225  0.22002545  0.94391619
   0.55093197  0.10877319  0.05726946
   0.44012171  0.55334998  0.94391556
   0.55093474  0.44210473  0.05726942
   0.44011341  0.88668321  0.94391942
   0.55092966  0.77542918  0.05727069
   0.77936303  0.22297539  0.95619139
   0.88998346  0.11162140  0.04309737
   0.77937177  0.55631821  0.95619158
   0.88998519  0.44496227  0.04309565
   0.77936469  0.88964830  0.95619033
   0.88998584  0.77829238  0.04309556
unknown system                          
           1
     8.309184    4.829188    0.000000
    -8.281915    4.781980    0.000000
     0.000000    0.000000   30.000000
   V    Mo   W    S 
   3   3   3  18
Direct configuration=    22
   0.03520873  0.01757936 -0.00127541
   1.03520591  0.35091088 -0.00127435
   0.03521469  0.68425171 -0.00127571
   0.34293307  0.00477982 -0.00081896
   0.34293919  0.33810300 -0.00081899
   0.34293439  0.67141695 -0.00081875
   0.62877718 -0.01898241  0.00201253
   0.62878313  0.31435905  0.00201096
   0.62878208  0.64769194  0.00201132
   0.11005149  0.22165550  0.94710035
   0.22199182  0.11097150  0.05246710
   0.11004987  0.55498486  0.94710063
   0.22198984  0.44429830  0.05246770
   0.11005230  0.88832364  0.94709937
   0.22199672  0.77763855  0.05246572
   0.44016834  0.22004681  0.94392786
   0.55088680  0.10874867  0.05729473
   0.44016862  0.55337547  0.94392786
   0.55089121  0.44208251  0.05729518
   0.44016118  0.88670677  0.94393085
   0.55088422  0.77540877  0.05729602
   0.77934894  0.22296888  0.95620349
   0.89002973  0.11164443  0.04308860
   0.77935307  0.55630878  0.95620307
   0.89003013  0.44498154  0.04308806
   0.77935087  0.88964095  0.95620262
   0.89003093  0.77831824  0.04308803
unknown system                          
           1
     8.308528    4.828756    0.000000
    -8.281305    4.781627    0.000000
     0.000000    0.000000   30.000000
   V    Mo   W    S 
   3   3   3  18
Direct configuration=    23
   0.03526757  0.01761163 -0.00135259
   1.03526349  0.35093657 -0.00135153
   0.03526206  0.68427555 -0.00135195
   0.34282988  0.00473091 -0.00080453
   0.34282770  0.33804665 -0.00080497
   0.34283118  0.67136326 -0.00080433
   0.62879940 -0.01897089  0.00207835
   0.62880591  0.31436948  0.00207747
   0.62880564  0.64770408  0.00207797
   0.11015741  0.22170849  0.94703755
   0.22181768  0.11088349  0.05244818
   0.11015680  0.55503610  0.94703787
   0.22181621  0.44421234  0.05244895
   0.11015905  0.88837979  0.94703686
   0.22182203  0.77755103  0.05244575
   0.44027660  0.22010065  0.94395174
   0.55078481  0.10869781  0.05734795
   0.44027631  0.55342980  0.94395152
   0.55079039  0.44203200  0.05734823
   0.44026938  0.88676066  0.94395570
   0.55078245  0.77535759  0.05734903
   0.77932404  0.22295688  0.95623326
   0.89014374  0.11170193  0.04306003
   0.77932766  0.55629577  0.95623206
   0.89014533  0.44503936  0.04305949
   0.77932575  0.88962818  0.95623244
   0.89014599  0.77837534  0.04305935
unknown system                          
           1
     8.308528    4.828756    0.000000
    -8.281305    4.781627    0.000000
     0.000000    0.000000   30.000000
   V    Mo   W    S 
   3   3   3  18
Direct configuration=    24
   0.03526360  0.01761092 -0.00136738
   1.03525986  0.35093363 -0.00136632
   0.03525408  0.68427139 -0.00136711
   0.34285436  0.00474477 -0.00080259
   0.34285009  0.33805809 -0.00080292
   0.34285565  0.67137364 -0.00080239
   0.62878066 -0.01898023  0.00208321
   0.62878687  0.31436014  0.00208185
   0.62878613  0.64769409  0.00208213
   0.11018491  0.22172230  0.94701969
   0.22177847  0.11086392  0.05244504
   0.11018489  0.55504966  0.94701958
   0.22177714  0.44419268  0.05244574
   0.11018714  0.88839439  0.94701856
   0.22178553  0.77753277  0.05244358
   0.44031267  0.22011840  0.94396580
   0.55075327  0.10868153  0.05735959
   0.44031261  0.55344824  0.94396573
   0.55075878  0.44201608  0.05735986
   0.44030553  0.88677872  0.94396955